ITEM: TIMESTEP
0
ITEM: NUMBER OF ATOMS
15
ITEM: BOX BOUNDS ff fm pp
-4.1000000000000000e+01 4.1000000000000000e+01
0.0000000000000000e+00 2.0000000000000000e+02
-2.5000000000000000e-01 2.5000000000000000e-01
ITEM: ATOMS id type x y vx vy fx fy omegaz tqz c_101[1] c_101[2] c_101[4] c_102 
42464 2 -0.5 140.866 0 0 -0.0515966 -165.023 0 0 -0.0386974 -0.116085 0.0223413 4 
42466 2 -1 141.732 0 0 -0.0515966 -165.023 0 0 -0.0386974 -0.116085 0.0223413 4 
42469 2 -1.5 142.598 0 0 -0.0515966 -165.023 0 0 -0.0386974 -0.116085 0.0223413 4 
42470 2 -0.5 142.598 0 0 -2.01985e-14 -164.934 0 0 -0.0515966 -0.154781 -0 6 
42473 2 -2 143.464 0 0 -0.0515966 -164.844 0 0 -0.0128991 -0.0386951 0.0223413 2 
42474 2 -1 143.464 0 0 -2.01985e-14 -164.755 0 0 -0.0257983 -0.0773903 -0 4 
42463 2 0 140 0 0 -2.01985e-14 -165.112 0 0 -0.0257983 -0.0773903 -0 2 
42465 2 0.5 140.866 0 0 0.0515966 -165.023 0 0 -0.0386974 -0.116085 -0.0223413 4 
42467 2 0 141.732 0 0 -2.01985e-14 -164.934 0 0 -0.0515966 -0.154781 -0 6 
42468 2 1 141.732 0 0 0.0515966 -165.023 0 0 -0.0386974 -0.116085 -0.0223413 4 
42471 2 0.5 142.598 0 0 -2.01985e-14 -164.934 0 0 -0.0515966 -0.154781 -0 6 
42472 2 1.5 142.598 0 0 0.0515966 -165.023 0 0 -0.0386974 -0.116085 -0.0223413 4 
42475 2 0 143.464 0 0 -2.01985e-14 -164.755 0 0 -0.0257983 -0.0773903 -0 4 
42476 2 1 143.464 0 0 -2.01985e-14 -164.755 0 0 -0.0257983 -0.0773903 -0 4 
42477 2 2 143.464 0 0 0.0515966 -164.844 0 0 -0.0128991 -0.0386951 -0.0223413 2 
ITEM: TIMESTEP
1000
ITEM: NUMBER OF ATOMS
15
ITEM: BOX BOUNDS ff fm pp
-4.1000000000000000e+01 4.1000000000000000e+01
0.0000000000000000e+00 2.0000000000000000e+02
-2.5000000000000000e-01 2.5000000000000000e-01
ITEM: ATOMS id type x y vx vy fx fy omegaz tqz c_101[1] c_101[2] c_101[4] c_102 
42464 2 -0.5 140.865 -6.12439e-18 -0.05 -0.0515966 -165.023 0 0 -0.0386974 -0.116085 0.0223413 4 
42466 2 -1 141.731 -6.12439e-18 -0.05 -0.0515966 -165.023 0 0 -0.0386974 -0.116085 0.0223413 4 
42469 2 -1.5 142.597 -6.12439e-18 -0.05 -0.0515966 -165.023 0 0 -0.0386974 -0.116085 0.0223413 4 
42470 2 -0.5 142.597 -6.12439e-18 -0.05 -2.01985e-14 -164.934 0 0 -0.0515966 -0.154781 -0 6 
42473 2 -2 143.463 -6.12439e-18 -0.05 -0.0515966 -164.844 0 0 -0.0128991 -0.0386951 0.0223413 2 
42474 2 -1 143.463 -6.12439e-18 -0.05 -2.01985e-14 -164.755 0 0 -0.0257983 -0.0773903 -0 4 
42463 2 -1.5311e-19 139.999 -6.12439e-18 -0.05 -2.01985e-14 -165.112 0 0 -0.0257983 -0.0773903 -0 2 
42465 2 0.5 140.865 -6.12439e-18 -0.05 0.0515966 -165.023 0 0 -0.0386974 -0.116085 -0.0223413 4 
42467 2 -1.5311e-19 141.731 -6.12439e-18 -0.05 -2.01985e-14 -164.934 0 0 -0.0515966 -0.154781 -0 6 
42468 2 1 141.731 -6.12439e-18 -0.05 0.0515966 -165.023 0 0 -0.0386974 -0.116085 -0.0223413 4 
42471 2 0.5 142.597 -6.12439e-18 -0.05 -2.01985e-14 -164.934 0 0 -0.0515966 -0.154781 -0 6 
42472 2 1.5 142.597 -6.12439e-18 -0.05 0.0515966 -165.023 0 0 -0.0386974 -0.116085 -0.0223413 4 
42475 2 -1.5311e-19 143.463 -6.12439e-18 -0.05 -2.01985e-14 -164.755 0 0 -0.0257983 -0.0773903 -0 4 
42476 2 1 143.463 -6.12439e-18 -0.05 -2.01985e-14 -164.755 0 0 -0.0257983 -0.0773903 -0 4 
42477 2 2 143.463 -6.12439e-18 -0.05 0.0515966 -164.844 0 0 -0.0128991 -0.0386951 -0.0223413 2 
ITEM: TIMESTEP
2000
ITEM: NUMBER OF ATOMS
15
ITEM: BOX BOUNDS ff fm pp
-4.1000000000000000e+01 4.1000000000000000e+01
0.0000000000000000e+00 2.0000000000000000e+02
-2.5000000000000000e-01 2.5000000000000000e-01
ITEM: ATOMS id type x y vx vy fx fy omegaz tqz c_101[1] c_101[2] c_101[4] c_102 
42464 2 -0.5 140.861 -1.22488e-17 -0.1 -0.0515966 -165.023 0 0 -0.0386974 -0.116085 0.0223413 4 
42466 2 -1 141.727 -1.22488e-17 -0.1 -0.0515966 -165.023 0 0 -0.0386974 -0.116085 0.0223413 4 
42469 2 -1.5 142.593 -1.22488e-17 -0.1 -0.0515966 -165.023 0 0 -0.0386974 -0.116085 0.0223413 4 
42470 2 -0.5 142.593 -1.22488e-17 -0.1 -2.01985e-14 -164.934 0 0 -0.0515966 -0.154781 -0 6 
42473 2 -2 143.459 -1.22488e-17 -0.1 -0.0515966 -164.844 0 0 -0.0128991 -0.0386951 0.0223413 2 
42474 2 -1 143.459 -1.22488e-17 -0.1 -2.01985e-14 -164.755 0 0 -0.0257983 -0.0773903 -0 4 
42463 2 -6.12439e-19 139.995 -1.22488e-17 -0.1 -2.01985e-14 -165.112 0 0 -0.0257983 -0.0773903 -0 2 
42465 2 0.5 140.861 -1.22488e-17 -0.1 0.0515966 -165.023 0 0 -0.0386974 -0.116085 -0.0223413 4 
42467 2 -6.12439e-19 141.727 -1.22488e-17 -0.1 -2.01985e-14 -164.934 0 0 -0.0515966 -0.154781 -0 6 
42468 2 1 141.727 -1.22488e-17 -0.1 0.0515966 -165.023 0 0 -0.0386974 -0.116085 -0.0223413 4 
42471 2 0.5 142.593 -1.22488e-17 -0.1 -2.01985e-14 -164.934 0 0 -0.0515966 -0.154781 -0 6 
42472 2 1.5 142.593 -1.22488e-17 -0.1 0.0515966 -165.023 0 0 -0.0386974 -0.116085 -0.0223413 4 
42475 2 -6.12439e-19 143.459 -1.22488e-17 -0.1 -2.01985e-14 -164.755 0 0 -0.0257983 -0.0773903 -0 4 
42476 2 1 143.459 -1.22488e-17 -0.1 -2.01985e-14 -164.755 0 0 -0.0257983 -0.0773903 -0 4 
42477 2 2 143.459 -1.22488e-17 -0.1 0.0515966 -164.844 0 0 -0.0128991 -0.0386951 -0.0223413 2 
ITEM: TIMESTEP
3000
ITEM: NUMBER OF ATOMS
15
ITEM: BOX BOUNDS ff fm pp
-4.1000000000000000e+01 4.1000000000000000e+01
0.0000000000000000e+00 2.0000000000000000e+02
-2.5000000000000000e-01 2.5000000000000000e-01
ITEM: ATOMS id type x y vx vy fx fy omegaz tqz c_101[1] c_101[2] c_101[4] c_102 
42464 2 -0.5 140.855 -1.83732e-17 -0.15 -0.0515966 -165.023 0 0 -0.0386974 -0.116085 0.0223413 4 
42466 2 -1 141.721 -1.83732e-17 -0.15 -0.0515966 -165.023 0 0 -0.0386974 -0.116085 0.0223413 4 
42469 2 -1.5 142.587 -1.83732e-17 -0.15 -0.0515966 -165.023 0 0 -0.0386974 -0.116085 0.0223413 4 
42470 2 -0.5 142.587 -1.83732e-17 -0.15 -2.01985e-14 -164.934 0 0 -0.0515966 -0.154781 -0 6 
42473 2 -2 143.453 -1.83732e-17 -0.15 -0.0515966 -164.844 0 0 -0.0128991 -0.0386951 0.0223413 2 
42474 2 -1 143.453 -1.83732e-17 -0.15 -2.01985e-14 -164.755 0 0 -0.0257983 -0.0773903 -0 4 
42463 2 -1.37799e-18 139.989 -1.83732e-17 -0.15 -2.01985e-14 -165.112 0 0 -0.0257983 -0.0773903 -0 2 
42465 2 0.5 140.855 -1.83732e-17 -0.15 0.0515966 -165.023 0 0 -0.0386974 -0.116085 -0.0223413 4 
42467 2 -1.37799e-18 141.721 -1.83732e-17 -0.15 -2.01985e-14 -164.934 0 0 -0.0515966 -0.154781 -0 6 
42468 2 1 141.721 -1.83732e-17 -0.15 0.0515966 -165.023 0 0 -0.0386974 -0.116085 -0.0223413 4 
42471 2 0.5 142.587 -1.83732e-17 -0.15 -2.01985e-14 -164.934 0 0 -0.0515966 -0.154781 -0 6 
42472 2 1.5 142.587 -1.83732e-17 -0.15 0.0515966 -165.023 0 0 -0.0386974 -0.116085 -0.0223413 4 
42475 2 -1.37799e-18 143.453 -1.83732e-17 -0.15 -2.01985e-14 -164.755 0 0 -0.0257983 -0.0773903 -0 4 
42476 2 1 143.453 -1.83732e-17 -0.15 -2.01985e-14 -164.755 0 0 -0.0257983 -0.0773903 -0 4 
42477 2 2 143.453 -1.83732e-17 -0.15 0.0515966 -164.844 0 0 -0.0128991 -0.0386951 -0.0223413 2 
ITEM: TIMESTEP
4000
ITEM: NUMBER OF ATOMS
15
ITEM: BOX BOUNDS ff fm pp
-4.1000000000000000e+01 4.1000000000000000e+01
0.0000000000000000e+00 2.0000000000000000e+02
-2.5000000000000000e-01 2.5000000000000000e-01
ITEM: ATOMS id type x y vx vy fx fy omegaz tqz c_101[1] c_101[2] c_101[4] c_102 
42464 2 -0.5 140.846 -2.44976e-17 -0.2 -0.0515966 -165.023 0 0 -0.0386974 -0.116085 0.0223413 4 
42466 2 -1 141.712 -2.44976e-17 -0.2 -0.0515966 -165.023 0 0 -0.0386974 -0.116085 0.0223413 4 
42469 2 -1.5 142.578 -2.44976e-17 -0.2 -0.0515966 -165.023 0 0 -0.0386974 -0.116085 0.0223413 4 
42470 2 -0.5 142.578 -2.44976e-17 -0.2 -2.01985e-14 -164.934 0 0 -0.0515966 -0.154781 -0 6 
42473 2 -2 143.444 -2.44976e-17 -0.2 -0.0515966 -164.844 0 0 -0.0128991 -0.0386951 0.0223413 2 
42474 2 -1 143.444 -2.44976e-17 -0.2 -2.01985e-14 -164.755 0 0 -0.0257983 -0.0773903 -0 4 
42463 2 -2.44976e-18 139.98 -2.44976e-17 -0.2 -2.01985e-14 -165.112 0 0 -0.0257983 -0.0773903 -0 2 
42465 2 0.5 140.846 -2.44976e-17 -0.2 0.0515966 -165.023 0 0 -0.0386974 -0.116085 -0.0223413 4 
42467 2 -2.44976e-18 141.712 -2.44976e-17 -0.2 -2.01985e-14 -164.934 0 0 -0.0515966 -0.154781 -0 6 
42468 2 1 141.712 -2.44976e-17 -0.2 0.0515966 -165.023 0 0 -0.0386974 -0.116085 -0.0223413 4 
42471 2 0.5 142.578 -2.44976e-17 -0.2 -2.01985e-14 -164.934 0 0 -0.0515966 -0.154781 -0 6 
42472 2 1.5 142.578 -2.44976e-17 -0.2 0.0515966 -165.023 0 0 -0.0386974 -0.116085 -0.0223413 4 
42475 2 -2.44976e-18 143.444 -2.44976e-17 -0.2 -2.01985e-14 -164.755 0 0 -0.0257983 -0.0773903 -0 4 
42476 2 1 143.444 -2.44976e-17 -0.2 -2.01985e-14 -164.755 0 0 -0.0257983 -0.0773903 -0 4 
42477 2 2 143.444 -2.44976e-17 -0.2 0.0515966 -164.844 0 0 -0.0128991 -0.0386951 -0.0223413 2 
ITEM: TIMESTEP
5000
ITEM: NUMBER OF ATOMS
15
ITEM: BOX BOUNDS ff fm pp
-4.1000000000000000e+01 4.1000000000000000e+01
0.0000000000000000e+00 2.0000000000000000e+02
-2.5000000000000000e-01 2.5000000000000000e-01
ITEM: ATOMS id type x y vx vy fx fy omegaz tqz c_101[1] c_101[2] c_101[4] c_102 
42464 2 -0.5 140.835 -3.0622e-17 -0.25 -0.0515966 -165.023 0 0 -0.0386974 -0.116085 0.0223413 4 
42466 2 -1 141.701 -3.0622e-17 -0.25 -0.0515966 -165.023 0 0 -0.0386974 -0.116085 0.0223413 4 
42469 2 -1.5 142.567 -3.0622e-17 -0.25 -0.0515966 -165.023 0 0 -0.0386974 -0.116085 0.0223413 4 
42470 2 -0.5 142.567 -3.0622e-17 -0.25 -2.01985e-14 -164.934 0 0 -0.0515966 -0.154781 -0 6 
42473 2 -2 143.433 -3.0622e-17 -0.25 -0.0515966 -164.844 0 0 -0.0128991 -0.0386951 0.0223413 2 
42474 2 -1 143.433 -3.0622e-17 -0.25 -2.01985e-14 -164.755 0 0 -0.0257983 -0.0773903 -0 4 
42463 2 -3.82774e-18 139.969 -3.0622e-17 -0.25 -2.01985e-14 -165.112 0 0 -0.0257983 -0.0773903 -0 2 
42465 2 0.5 140.835 -3.0622e-17 -0.25 0.0515966 -165.023 0 0 -0.0386974 -0.116085 -0.0223413 4 
42467 2 -3.82774e-18 141.701 -3.0622e-17 -0.25 -2.01985e-14 -164.934 0 0 -0.0515966 -0.154781 -0 6 
42468 2 1 141.701 -3.0622e-17 -0.25 0.0515966 -165.023 0 0 -0.0386974 -0.116085 -0.0223413 4 
42471 2 0.5 142.567 -3.0622e-17 -0.25 -2.01985e-14 -164.934 0 0 -0.0515966 -0.154781 -0 6 
42472 2 1.5 142.567 -3.0622e-17 -0.25 0.0515966 -165.023 0 0 -0.0386974 -0.116085 -0.0223413 4 
42475 2 -3.82774e-18 143.433 -3.0622e-17 -0.25 -2.01985e-14 -164.755 0 0 -0.0257983 -0.0773903 -0 4 
42476 2 1 143.433 -3.0622e-17 -0.25 -2.01985e-14 -164.755 0 0 -0.0257983 -0.0773903 -0 4 
42477 2 2 143.433 -3.0622e-17 -0.25 0.0515966 -164.844 0 0 -0.0128991 -0.0386951 -0.0223413 2 
ITEM: TIMESTEP
6000
ITEM: NUMBER OF ATOMS
15
ITEM: BOX BOUNDS ff fm pp
-4.1000000000000000e+01 4.1000000000000000e+01
0.0000000000000000e+00 2.0000000000000000e+02
-2.5000000000000000e-01 2.5000000000000000e-01
ITEM: ATOMS id type x y vx vy fx fy omegaz tqz c_101[1] c_101[2] c_101[4] c_102 
42464 2 -0.5 140.821 -3.67463e-17 -0.3 -0.0515966 -165.023 0 0 -0.0386974 -0.116085 0.0223413 4 
42466 2 -1 141.687 -3.67463e-17 -0.3 -0.0515966 -165.023 0 0 -0.0386974 -0.116085 0.0223413 4 
42469 2 -1.5 142.553 -3.67463e-17 -0.3 -0.0515966 -165.023 0 0 -0.0386974 -0.116085 0.0223413 4 
42470 2 -0.5 142.553 -3.67463e-17 -0.3 -2.01985e-14 -164.934 0 0 -0.0515966 -0.154781 -0 6 
42473 2 -2 143.419 -3.67463e-17 -0.3 -0.0515966 -164.844 0 0 -0.0128991 -0.0386951 0.0223413 2 
42474 2 -1 143.419 -3.67463e-17 -0.3 -2.01985e-14 -164.755 0 0 -0.0257983 -0.0773903 -0 4 
42463 2 -5.51195e-18 139.955 -3.67463e-17 -0.3 -2.01985e-14 -165.112 0 0 -0.0257983 -0.0773903 -0 2 
42465 2 0.5 140.821 -3.67463e-17 -0.3 0.0515966 -165.023 0 0 -0.0386974 -0.116085 -0.0223413 4 
42467 2 -5.51195e-18 141.687 -3.67463e-17 -0.3 -2.01985e-14 -164.934 0 0 -0.0515966 -0.154781 -0 6 
42468 2 1 141.687 -3.67463e-17 -0.3 0.0515966 -165.023 0 0 -0.0386974 -0.116085 -0.0223413 4 
42471 2 0.5 142.553 -3.67463e-17 -0.3 -2.01985e-14 -164.934 0 0 -0.0515966 -0.154781 -0 6 
42472 2 1.5 142.553 -3.67463e-17 -0.3 0.0515966 -165.023 0 0 -0.0386974 -0.116085 -0.0223413 4 
42475 2 -5.51195e-18 143.419 -3.67463e-17 -0.3 -2.01985e-14 -164.755 0 0 -0.0257983 -0.0773903 -0 4 
42476 2 1 143.419 -3.67463e-17 -0.3 -2.01985e-14 -164.755 0 0 -0.0257983 -0.0773903 -0 4 
42477 2 2 143.419 -3.67463e-17 -0.3 0.0515966 -164.844 0 0 -0.0128991 -0.0386951 -0.0223413 2 
ITEM: TIMESTEP
7000
ITEM: NUMBER OF ATOMS
15
ITEM: BOX BOUNDS ff fm pp
-4.1000000000000000e+01 4.1000000000000000e+01
0.0000000000000000e+00 2.0000000000000000e+02
-2.5000000000000000e-01 2.5000000000000000e-01
ITEM: ATOMS id type x y vx vy fx fy omegaz tqz c_101[1] c_101[2] c_101[4] c_102 
42464 2 -0.5 140.805 -4.28707e-17 -0.35 -0.0515966 -165.023 0 0 -0.0386974 -0.116085 0.0223413 4 
42466 2 -1 141.671 -4.28707e-17 -0.35 -0.0515966 -165.023 0 0 -0.0386974 -0.116085 0.0223413 4 
42469 2 -1.5 142.537 -4.28707e-17 -0.35 -0.0515966 -165.023 0 0 -0.0386974 -0.116085 0.0223413 4 
42470 2 -0.5 142.537 -4.28707e-17 -0.35 -2.01985e-14 -164.934 0 0 -0.0515966 -0.154781 -0 6 
42473 2 -2 143.403 -4.28707e-17 -0.35 -0.0515966 -164.844 0 0 -0.0128991 -0.0386951 0.0223413 2 
42474 2 -1 143.403 -4.28707e-17 -0.35 -2.01985e-14 -164.755 0 0 -0.0257983 -0.0773903 -0 4 
42463 2 -7.50238e-18 139.939 -4.28707e-17 -0.35 -2.01985e-14 -165.112 0 0 -0.0257983 -0.0773903 -0 2 
42465 2 0.5 140.805 -4.28707e-17 -0.35 0.0515966 -165.023 0 0 -0.0386974 -0.116085 -0.0223413 4 
42467 2 -7.50238e-18 141.671 -4.28707e-17 -0.35 -2.01985e-14 -164.934 0 0 -0.0515966 -0.154781 -0 6 
42468 2 1 141.671 -4.28707e-17 -0.35 0.0515966 -165.023 0 0 -0.0386974 -0.116085 -0.0223413 4 
42471 2 0.5 142.537 -4.28707e-17 -0.35 -2.01985e-14 -164.934 0 0 -0.0515966 -0.154781 -0 6 
42472 2 1.5 142.537 -4.28707e-17 -0.35 0.0515966 -165.023 0 0 -0.0386974 -0.116085 -0.0223413 4 
42475 2 -7.50238e-18 143.403 -4.28707e-17 -0.35 -2.01985e-14 -164.755 0 0 -0.0257983 -0.0773903 -0 4 
42476 2 1 143.403 -4.28707e-17 -0.35 -2.01985e-14 -164.755 0 0 -0.0257983 -0.0773903 -0 4 
42477 2 2 143.403 -4.28707e-17 -0.35 0.0515966 -164.844 0 0 -0.0128991 -0.0386951 -0.0223413 2 
ITEM: TIMESTEP
8000
ITEM: NUMBER OF ATOMS
15
ITEM: BOX BOUNDS ff fm pp
-4.1000000000000000e+01 4.1000000000000000e+01
0.0000000000000000e+00 2.0000000000000000e+02
-2.5000000000000000e-01 2.5000000000000000e-01
ITEM: ATOMS id type x y vx vy fx fy omegaz tqz c_101[1] c_101[2] c_101[4] c_102 
42464 2 -0.5 140.786 -4.89951e-17 -0.4 -0.0515966 -165.023 0 0 -0.0386974 -0.116085 0.0223413 4 
42466 2 -1 141.652 -4.89951e-17 -0.4 -0.0515966 -165.023 0 0 -0.0386974 -0.116085 0.0223413 4 
42469 2 -1.5 142.518 -4.89951e-17 -0.4 -0.0515966 -165.023 0 0 -0.0386974 -0.116085 0.0223413 4 
42470 2 -0.5 142.518 -4.89951e-17 -0.4 -2.01985e-14 -164.934 0 0 -0.0515966 -0.154781 -0 6 
42473 2 -2 143.384 -4.89951e-17 -0.4 -0.0515966 -164.844 0 0 -0.0128991 -0.0386951 0.0223413 2 
42474 2 -1 143.384 -4.89951e-17 -0.4 -2.01985e-14 -164.755 0 0 -0.0257983 -0.0773903 -0 4 
42463 2 -9.79903e-18 139.92 -4.89951e-17 -0.4 -2.01985e-14 -165.112 0 0 -0.0257983 -0.0773903 -0 2 
42465 2 0.5 140.786 -4.89951e-17 -0.4 0.0515966 -165.023 0 0 -0.0386974 -0.116085 -0.0223413 4 
42467 2 -9.79903e-18 141.652 -4.89951e-17 -0.4 -2.01985e-14 -164.934 0 0 -0.0515966 -0.154781 -0 6 
42468 2 1 141.652 -4.89951e-17 -0.4 0.0515966 -165.023 0 0 -0.0386974 -0.116085 -0.0223413 4 
42471 2 0.5 142.518 -4.89951e-17 -0.4 -2.01985e-14 -164.934 0 0 -0.0515966 -0.154781 -0 6 
42472 2 1.5 142.518 -4.89951e-17 -0.4 0.0515966 -165.023 0 0 -0.0386974 -0.116085 -0.0223413 4 
42475 2 -9.79903e-18 143.384 -4.89951e-17 -0.4 -2.01985e-14 -164.755 0 0 -0.0257983 -0.0773903 -0 4 
42476 2 1 143.384 -4.89951e-17 -0.4 -2.01985e-14 -164.755 0 0 -0.0257983 -0.0773903 -0 4 
42477 2 2 143.384 -4.89951e-17 -0.4 0.0515966 -164.844 0 0 -0.0128991 -0.0386951 -0.0223413 2 
ITEM: TIMESTEP
9000
ITEM: NUMBER OF ATOMS
15
ITEM: BOX BOUNDS ff fm pp
-4.1000000000000000e+01 4.1000000000000000e+01
0.0000000000000000e+00 2.0000000000000000e+02
-2.5000000000000000e-01 2.5000000000000000e-01
ITEM: ATOMS id type x y vx vy fx fy omegaz tqz c_101[1] c_101[2] c_101[4] c_102 
42463 2 -1.24019e-17 139.899 -5.51195e-17 -0.45 -2.01985e-14 -165.112 0 0 -0.0257983 -0.0773903 -0 2 
42464 2 -0.5 140.765 -5.51195e-17 -0.45 -0.0515966 -165.023 0 0 -0.0386974 -0.116085 0.0223413 4 
42466 2 -1 141.631 -5.51195e-17 -0.45 -0.0515966 -165.023 0 0 -0.0386974 -0.116085 0.0223413 4 
42467 2 -1.24019e-17 141.631 -5.51195e-17 -0.45 -2.01985e-14 -164.934 0 0 -0.0515966 -0.154781 -0 6 
42469 2 -1.5 142.497 -5.51195e-17 -0.45 -0.0515966 -165.023 0 0 -0.0386974 -0.116085 0.0223413 4 
42470 2 -0.5 142.497 -5.51195e-17 -0.45 -2.01985e-14 -164.934 0 0 -0.0515966 -0.154781 -0 6 
42473 2 -2 143.363 -5.51195e-17 -0.45 -0.0515966 -164.844 0 0 -0.0128991 -0.0386951 0.0223413 2 
42474 2 -1 143.363 -5.51195e-17 -0.45 -2.01985e-14 -164.755 0 0 -0.0257983 -0.0773903 -0 4 
42475 2 -1.24019e-17 143.363 -5.51195e-17 -0.45 -2.01985e-14 -164.755 0 0 -0.0257983 -0.0773903 -0 4 
42465 2 0.5 140.765 -5.51195e-17 -0.45 0.0515966 -165.023 0 0 -0.0386974 -0.116085 -0.0223413 4 
42468 2 1 141.631 -5.51195e-17 -0.45 0.0515966 -165.023 0 0 -0.0386974 -0.116085 -0.0223413 4 
42471 2 0.5 142.497 -5.51195e-17 -0.45 -2.01985e-14 -164.934 0 0 -0.0515966 -0.154781 -0 6 
42472 2 1.5 142.497 -5.51195e-17 -0.45 0.0515966 -165.023 0 0 -0.0386974 -0.116085 -0.0223413 4 
42476 2 1 143.363 -5.51195e-17 -0.45 -2.01985e-14 -164.755 0 0 -0.0257983 -0.0773903 -0 4 
42477 2 2 143.363 -5.51195e-17 -0.45 0.0515966 -164.844 0 0 -0.0128991 -0.0386951 -0.0223413 2 
ITEM: TIMESTEP
10000
ITEM: NUMBER OF ATOMS
15
ITEM: BOX BOUNDS ff fm pp
-4.1000000000000000e+01 4.1000000000000000e+01
0.0000000000000000e+00 2.0000000000000000e+02
-2.5000000000000000e-01 2.5000000000000000e-01
ITEM: ATOMS id type x y vx vy fx fy omegaz tqz c_101[1] c_101[2] c_101[4] c_102 
42463 2 -1.5311e-17 139.875 -6.12439e-17 -0.5 -2.01985e-14 -165.112 0 0 -0.0257983 -0.0773903 -0 2 
42464 2 -0.5 140.741 -6.12439e-17 -0.5 -0.0515966 -165.023 0 0 -0.0386974 -0.116085 0.0223413 4 
42466 2 -1 141.607 -6.12439e-17 -0.5 -0.0515966 -165.023 0 0 -0.0386974 -0.116085 0.0223413 4 
42467 2 -1.5311e-17 141.607 -6.12439e-17 -0.5 -2.01985e-14 -164.934 0 0 -0.0515966 -0.154781 -0 6 
42469 2 -1.5 142.473 -6.12439e-17 -0.5 -0.0515966 -165.023 0 0 -0.0386974 -0.116085 0.0223413 4 
42470 2 -0.5 142.473 -6.12439e-17 -0.5 -2.01985e-14 -164.934 0 0 -0.0515966 -0.154781 -0 6 
42473 2 -2 143.339 -6.12439e-17 -0.5 -0.0515966 -164.844 0 0 -0.0128991 -0.0386951 0.0223413 2 
42474 2 -1 143.339 -6.12439e-17 -0.5 -2.01985e-14 -164.755 0 0 -0.0257983 -0.0773903 -0 4 
42475 2 -1.5311e-17 143.339 -6.12439e-17 -0.5 -2.01985e-14 -164.755 0 0 -0.0257983 -0.0773903 -0 4 
42465 2 0.5 140.741 -6.12439e-17 -0.5 0.0515966 -165.023 0 0 -0.0386974 -0.116085 -0.0223413 4 
42468 2 1 141.607 -6.12439e-17 -0.5 0.0515966 -165.023 0 0 -0.0386974 -0.116085 -0.0223413 4 
42471 2 0.5 142.473 -6.12439e-17 -0.5 -2.01985e-14 -164.934 0 0 -0.0515966 -0.154781 -0 6 
42472 2 1.5 142.473 -6.12439e-17 -0.5 0.0515966 -165.023 0 0 -0.0386974 -0.116085 -0.0223413 4 
42476 2 1 143.339 -6.12439e-17 -0.5 -2.01985e-14 -164.755 0 0 -0.0257983 -0.0773903 -0 4 
42477 2 2 143.339 -6.12439e-17 -0.5 0.0515966 -164.844 0 0 -0.0128991 -0.0386951 -0.0223413 2 
ITEM: TIMESTEP
11000
ITEM: NUMBER OF ATOMS
15
ITEM: BOX BOUNDS ff fm pp
-4.1000000000000000e+01 4.1000000000000000e+01
0.0000000000000000e+00 2.0000000000000000e+02
-2.5000000000000000e-01 2.5000000000000000e-01
ITEM: ATOMS id type x y vx vy fx fy omegaz tqz c_101[1] c_101[2] c_101[4] c_102 
42463 2 -1.85263e-17 139.849 -6.73683e-17 -0.55 -2.01985e-14 -165.112 0 0 -0.0257983 -0.0773903 -0 2 
42464 2 -0.5 140.715 -6.73683e-17 -0.55 -0.0515966 -165.023 0 0 -0.0386974 -0.116085 0.0223413 4 
42466 2 -1 141.581 -6.73683e-17 -0.55 -0.0515966 -165.023 0 0 -0.0386974 -0.116085 0.0223413 4 
42467 2 -1.85263e-17 141.581 -6.73683e-17 -0.55 -2.01985e-14 -164.934 0 0 -0.0515966 -0.154781 -0 6 
42469 2 -1.5 142.447 -6.73683e-17 -0.55 -0.0515966 -165.023 0 0 -0.0386974 -0.116085 0.0223413 4 
42470 2 -0.5 142.447 -6.73683e-17 -0.55 -2.01985e-14 -164.934 0 0 -0.0515966 -0.154781 -0 6 
42473 2 -2 143.313 -6.73683e-17 -0.55 -0.0515966 -164.844 0 0 -0.0128991 -0.0386951 0.0223413 2 
42474 2 -1 143.313 -6.73683e-17 -0.55 -2.01985e-14 -164.755 0 0 -0.0257983 -0.0773903 -0 4 
42475 2 -1.85263e-17 143.313 -6.73683e-17 -0.55 -2.01985e-14 -164.755 0 0 -0.0257983 -0.0773903 -0 4 
42465 2 0.5 140.715 -6.73683e-17 -0.55 0.0515966 -165.023 0 0 -0.0386974 -0.116085 -0.0223413 4 
42468 2 1 141.581 -6.73683e-17 -0.55 0.0515966 -165.023 0 0 -0.0386974 -0.116085 -0.0223413 4 
42471 2 0.5 142.447 -6.73683e-17 -0.55 -2.01985e-14 -164.934 0 0 -0.0515966 -0.154781 -0 6 
42472 2 1.5 142.447 -6.73683e-17 -0.55 0.0515966 -165.023 0 0 -0.0386974 -0.116085 -0.0223413 4 
42476 2 1 143.313 -6.73683e-17 -0.55 -2.01985e-14 -164.755 0 0 -0.0257983 -0.0773903 -0 4 
42477 2 2 143.313 -6.73683e-17 -0.55 0.0515966 -164.844 0 0 -0.0128991 -0.0386951 -0.0223413 2 
ITEM: TIMESTEP
12000
ITEM: NUMBER OF ATOMS
15
ITEM: BOX BOUNDS ff fm pp
-4.1000000000000000e+01 4.1000000000000000e+01
0.0000000000000000e+00 2.0000000000000000e+02
-2.5000000000000000e-01 2.5000000000000000e-01
ITEM: ATOMS id type x y vx vy fx fy omegaz tqz c_101[1] c_101[2] c_101[4] c_102 
42463 2 -2.20478e-17 139.82 -7.34927e-17 -0.6 -2.01985e-14 -165.112 0 0 -0.0257983 -0.0773903 -0 2 
42464 2 -0.5 140.686 -7.34927e-17 -0.6 -0.0515966 -165.023 0 0 -0.0386974 -0.116085 0.0223413 4 
42466 2 -1 141.552 -7.34927e-17 -0.6 -0.0515966 -165.023 0 0 -0.0386974 -0.116085 0.0223413 4 
42467 2 -2.20478e-17 141.552 -7.34927e-17 -0.6 -2.01985e-14 -164.934 0 0 -0.0515966 -0.154781 -0 6 
42469 2 -1.5 142.418 -7.34927e-17 -0.6 -0.0515966 -165.023 0 0 -0.0386974 -0.116085 0.0223413 4 
42470 2 -0.5 142.418 -7.34927e-17 -0.6 -2.01985e-14 -164.934 0 0 -0.0515966 -0.154781 -0 6 
42473 2 -2 143.284 -7.34927e-17 -0.6 -0.0515966 -164.844 0 0 -0.0128991 -0.0386951 0.0223413 2 
42474 2 -1 143.284 -7.34927e-17 -0.6 -2.01985e-14 -164.755 0 0 -0.0257983 -0.0773903 -0 4 
42475 2 -2.20478e-17 143.284 -7.34927e-17 -0.6 -2.01985e-14 -164.755 0 0 -0.0257983 -0.0773903 -0 4 
42465 2 0.5 140.686 -7.34927e-17 -0.6 0.0515966 -165.023 0 0 -0.0386974 -0.116085 -0.0223413 4 
42468 2 1 141.552 -7.34927e-17 -0.6 0.0515966 -165.023 0 0 -0.0386974 -0.116085 -0.0223413 4 
42471 2 0.5 142.418 -7.34927e-17 -0.6 -2.01985e-14 -164.934 0 0 -0.0515966 -0.154781 -0 6 
42472 2 1.5 142.418 -7.34927e-17 -0.6 0.0515966 -165.023 0 0 -0.0386974 -0.116085 -0.0223413 4 
42476 2 1 143.284 -7.34927e-17 -0.6 -2.01985e-14 -164.755 0 0 -0.0257983 -0.0773903 -0 4 
42477 2 2 143.284 -7.34927e-17 -0.6 0.0515966 -164.844 0 0 -0.0128991 -0.0386951 -0.0223413 2 
ITEM: TIMESTEP
13000
ITEM: NUMBER OF ATOMS
15
ITEM: BOX BOUNDS ff fm pp
-4.1000000000000000e+01 4.1000000000000000e+01
0.0000000000000000e+00 2.0000000000000000e+02
-2.5000000000000000e-01 2.5000000000000000e-01
ITEM: ATOMS id type x y vx vy fx fy omegaz tqz c_101[1] c_101[2] c_101[4] c_102 
42463 2 -2.58756e-17 139.789 -7.96171e-17 -0.65 -2.01985e-14 -165.112 0 0 -0.0257983 -0.0773903 -0 2 
42464 2 -0.5 140.655 -7.96171e-17 -0.65 -0.0515966 -165.023 0 0 -0.0386974 -0.116085 0.0223413 4 
42466 2 -1 141.521 -7.96171e-17 -0.65 -0.0515966 -165.023 0 0 -0.0386974 -0.116085 0.0223413 4 
42467 2 -2.58756e-17 141.521 -7.96171e-17 -0.65 -2.01985e-14 -164.934 0 0 -0.0515966 -0.154781 -0 6 
42469 2 -1.5 142.387 -7.96171e-17 -0.65 -0.0515966 -165.023 0 0 -0.0386974 -0.116085 0.0223413 4 
42470 2 -0.5 142.387 -7.96171e-17 -0.65 -2.01985e-14 -164.934 0 0 -0.0515966 -0.154781 -0 6 
42473 2 -2 143.253 -7.96171e-17 -0.65 -0.0515966 -164.844 0 0 -0.0128991 -0.0386951 0.0223413 2 
42474 2 -1 143.253 -7.96171e-17 -0.65 -2.01985e-14 -164.755 0 0 -0.0257983 -0.0773903 -0 4 
42475 2 -2.58756e-17 143.253 -7.96171e-17 -0.65 -2.01985e-14 -164.755 0 0 -0.0257983 -0.0773903 -0 4 
42465 2 0.5 140.655 -7.96171e-17 -0.65 0.0515966 -165.023 0 0 -0.0386974 -0.116085 -0.0223413 4 
42468 2 1 141.521 -7.96171e-17 -0.65 0.0515966 -165.023 0 0 -0.0386974 -0.116085 -0.0223413 4 
42471 2 0.5 142.387 -7.96171e-17 -0.65 -2.01985e-14 -164.934 0 0 -0.0515966 -0.154781 -0 6 
42472 2 1.5 142.387 -7.96171e-17 -0.65 0.0515966 -165.023 0 0 -0.0386974 -0.116085 -0.0223413 4 
42476 2 1 143.253 -7.96171e-17 -0.65 -2.01985e-14 -164.755 0 0 -0.0257983 -0.0773903 -0 4 
42477 2 2 143.253 -7.96171e-17 -0.65 0.0515966 -164.844 0 0 -0.0128991 -0.0386951 -0.0223413 2 
ITEM: TIMESTEP
14000
ITEM: NUMBER OF ATOMS
15
ITEM: BOX BOUNDS ff fm pp
-4.1000000000000000e+01 4.1000000000000000e+01
0.0000000000000000e+00 2.0000000000000000e+02
-2.5000000000000000e-01 2.5000000000000000e-01
ITEM: ATOMS id type x y vx vy fx fy omegaz tqz c_101[1] c_101[2] c_101[4] c_102 
42463 2 -3.00095e-17 139.755 -8.57412e-17 -0.7 -2.02055e-14 -165.112 0 0 -0.0257983 -0.0773903 -3.46945e-18 2 
42464 2 -0.5 140.621 -8.57412e-17 -0.7 -0.0515966 -165.023 0 0 -0.0386974 -0.116085 0.0223413 4 
42466 2 -1 141.487 -8.57412e-17 -0.7 -0.0515966 -165.023 0 0 -0.0386974 -0.116085 0.0223413 4 
42467 2 -3.00095e-17 141.487 -8.57412e-17 -0.7 -2.02124e-14 -164.934 0 0 -0.0515966 -0.154781 -0 6 
42469 2 -1.5 142.353 -8.57412e-17 -0.7 -0.0515966 -165.023 0 0 -0.0386974 -0.116085 0.0223413 4 
42470 2 -0.5 142.353 -8.57412e-17 -0.7 -2.01847e-14 -164.934 0 0 -0.0515966 -0.154781 -0 6 
42473 2 -2 143.219 -8.57412e-17 -0.7 -0.0515966 -164.844 0 0 -0.0128991 -0.0386951 0.0223413 2 
42474 2 -1 143.219 -8.57412e-17 -0.7 -2.01985e-14 -164.755 0 0 -0.0257983 -0.0773903 -0 4 
42475 2 -3.00095e-17 143.219 -8.57412e-17 -0.7 -2.02055e-14 -164.755 0 0 -0.0257983 -0.0773903 3.46945e-18 4 
42465 2 0.5 140.621 -8.57412e-17 -0.7 0.0515966 -165.023 0 0 -0.0386974 -0.116085 -0.0223413 4 
42468 2 1 141.487 -8.57412e-17 -0.7 0.0515966 -165.023 0 0 -0.0386974 -0.116085 -0.0223413 4 
42471 2 0.5 142.353 -8.57412e-17 -0.7 -2.01985e-14 -164.934 0 0 -0.0515966 -0.154781 -0 6 
42472 2 1.5 142.353 -8.57412e-17 -0.7 0.0515966 -165.023 0 0 -0.0386974 -0.116085 -0.0223413 4 
42476 2 1 143.219 -8.57412e-17 -0.7 -2.01985e-14 -164.755 0 0 -0.0257983 -0.0773903 -0 4 
42477 2 2 143.219 -8.57412e-17 -0.7 0.0515966 -164.844 0 0 -0.0128991 -0.0386951 -0.0223413 2 
ITEM: TIMESTEP
15000
ITEM: NUMBER OF ATOMS
15
ITEM: BOX BOUNDS ff fm pp
-4.1000000000000000e+01 4.1000000000000000e+01
0.0000000000000000e+00 2.0000000000000000e+02
-2.5000000000000000e-01 2.5000000000000000e-01
ITEM: ATOMS id type x y vx vy fx fy omegaz tqz c_101[1] c_101[2] c_101[4] c_102 
42463 2 -3.44497e-17 139.719 -9.1865e-17 -0.75 -2.02055e-14 -165.112 0 0 -0.0257983 -0.0773903 -3.46945e-18 2 
42464 2 -0.5 140.585 -9.1865e-17 -0.75 -0.0515966 -165.023 0 0 -0.0386974 -0.116085 0.0223413 4 
42466 2 -1 141.451 -9.1865e-17 -0.75 -0.0515966 -165.023 0 0 -0.0386974 -0.116085 0.0223413 4 
42467 2 -3.44497e-17 141.451 -9.1865e-17 -0.75 -2.02124e-14 -164.934 0 0 -0.0515966 -0.154781 -0 6 
42469 2 -1.5 142.317 -9.1865e-17 -0.75 -0.0515966 -165.023 0 0 -0.0386974 -0.116085 0.0223413 4 
42470 2 -0.5 142.317 -9.1865e-17 -0.75 -2.01847e-14 -164.934 0 0 -0.0515966 -0.154781 -0 6 
42473 2 -2 143.183 -9.1865e-17 -0.75 -0.0515966 -164.844 0 0 -0.0128991 -0.0386951 0.0223413 2 
42474 2 -1 143.183 -9.1865e-17 -0.75 -2.01985e-14 -164.755 0 0 -0.0257983 -0.0773903 -0 4 
42475 2 -3.44497e-17 143.183 -9.1865e-17 -0.75 -2.02055e-14 -164.755 0 0 -0.0257983 -0.0773903 3.46945e-18 4 
42465 2 0.5 140.585 -9.1865e-17 -0.75 0.0515966 -165.023 0 0 -0.0386974 -0.116085 -0.0223413 4 
42468 2 1 141.451 -9.1865e-17 -0.75 0.0515966 -165.023 0 0 -0.0386974 -0.116085 -0.0223413 4 
42471 2 0.5 142.317 -9.1865e-17 -0.75 -2.01985e-14 -164.934 0 0 -0.0515966 -0.154781 -0 6 
42472 2 1.5 142.317 -9.1865e-17 -0.75 0.0515966 -165.023 0 0 -0.0386974 -0.116085 -0.0223413 4 
42476 2 1 143.183 -9.1865e-17 -0.75 -2.01985e-14 -164.755 0 0 -0.0257983 -0.0773903 -0 4 
42477 2 2 143.183 -9.1865e-17 -0.75 0.0515966 -164.844 0 0 -0.0128991 -0.0386951 -0.0223413 2 
ITEM: TIMESTEP
16000
ITEM: NUMBER OF ATOMS
15
ITEM: BOX BOUNDS ff fm pp
-4.1000000000000000e+01 4.1000000000000000e+01
0.0000000000000000e+00 2.0000000000000000e+02
-2.5000000000000000e-01 2.5000000000000000e-01
ITEM: ATOMS id type x y vx vy fx fy omegaz tqz c_101[1] c_101[2] c_101[4] c_102 
42463 2 -3.9196e-17 139.68 -9.79888e-17 -0.8 -2.02055e-14 -165.112 0 0 -0.0257983 -0.0773903 -3.46945e-18 2 
42464 2 -0.5 140.546 -9.79888e-17 -0.8 -0.0515966 -165.023 0 0 -0.0386974 -0.116085 0.0223413 4 
42466 2 -1 141.412 -9.79888e-17 -0.8 -0.0515966 -165.023 0 0 -0.0386974 -0.116085 0.0223413 4 
42467 2 -3.9196e-17 141.412 -9.79888e-17 -0.8 -2.02124e-14 -164.934 0 0 -0.0515966 -0.154781 -0 6 
42469 2 -1.5 142.278 -9.79888e-17 -0.8 -0.0515966 -165.023 0 0 -0.0386974 -0.116085 0.0223413 4 
42470 2 -0.5 142.278 -9.79888e-17 -0.8 -2.01847e-14 -164.934 0 0 -0.0515966 -0.154781 -0 6 
42473 2 -2 143.144 -9.79888e-17 -0.8 -0.0515966 -164.844 0 0 -0.0128991 -0.0386951 0.0223413 2 
42474 2 -1 143.144 -9.79888e-17 -0.8 -2.01985e-14 -164.755 0 0 -0.0257983 -0.0773903 -0 4 
42475 2 -3.9196e-17 143.144 -9.79888e-17 -0.8 -2.02055e-14 -164.755 0 0 -0.0257983 -0.0773903 3.46945e-18 4 
42465 2 0.5 140.546 -9.79888e-17 -0.8 0.0515966 -165.023 0 0 -0.0386974 -0.116085 -0.0223413 4 
42468 2 1 141.412 -9.79888e-17 -0.8 0.0515966 -165.023 0 0 -0.0386974 -0.116085 -0.0223413 4 
42471 2 0.5 142.278 -9.79888e-17 -0.8 -2.01985e-14 -164.934 0 0 -0.0515966 -0.154781 -0 6 
42472 2 1.5 142.278 -9.79888e-17 -0.8 0.0515966 -165.023 0 0 -0.0386974 -0.116085 -0.0223413 4 
42476 2 1 143.144 -9.79888e-17 -0.8 -2.01985e-14 -164.755 0 0 -0.0257983 -0.0773903 -0 4 
42477 2 2 143.144 -9.79888e-17 -0.8 0.0515966 -164.844 0 0 -0.0128991 -0.0386951 -0.0223413 2 
ITEM: TIMESTEP
17000
ITEM: NUMBER OF ATOMS
15
ITEM: BOX BOUNDS ff fm pp
-4.1000000000000000e+01 4.1000000000000000e+01
0.0000000000000000e+00 2.0000000000000000e+02
-2.5000000000000000e-01 2.5000000000000000e-01
ITEM: ATOMS id type x y vx vy fx fy omegaz tqz c_101[1] c_101[2] c_101[4] c_102 
42463 2 -4.42485e-17 139.639 -1.04113e-16 -0.85 -2.02055e-14 -165.112 0 0 -0.0257983 -0.0773903 -3.46945e-18 2 
42464 2 -0.5 140.505 -1.04113e-16 -0.85 -0.0515966 -165.023 0 0 -0.0386974 -0.116085 0.0223413 4 
42466 2 -1 141.371 -1.04113e-16 -0.85 -0.0515966 -165.023 0 0 -0.0386974 -0.116085 0.0223413 4 
42467 2 -4.42485e-17 141.371 -1.04113e-16 -0.85 -2.02124e-14 -164.934 0 0 -0.0515966 -0.154781 -0 6 
42469 2 -1.5 142.237 -1.04113e-16 -0.85 -0.0515966 -165.023 0 0 -0.0386974 -0.116085 0.0223413 4 