ITEM: TIMESTEP
0
ITEM: NUMBER OF ATOMS
15
ITEM: BOX BOUNDS ff fm pp
-4.1000000000000000e+01 4.1000000000000000e+01
0.0000000000000000e+00 2.0000000000000000e+02
-2.5000000000000000e-01 2.5000000000000000e-01
ITEM: ATOMS id x y 
42464 -0.5 140.866 
42466 -1 141.732 
42469 -1.5 142.598 
42470 -0.5 142.598 
42473 -2 143.464 
42474 -1 143.464 
42463 0 140 
42465 0.5 140.866 
42467 0 141.732 
42468 1 141.732 
42471 0.5 142.598 
42472 1.5 142.598 
42475 0 143.464 
42476 1 143.464 
42477 2 143.464 
ITEM: TIMESTEP
1000
ITEM: NUMBER OF ATOMS
15
ITEM: BOX BOUNDS ff fm pp
-4.1000000000000000e+01 4.1000000000000000e+01
0.0000000000000000e+00 2.0000000000000000e+02
-2.5000000000000000e-01 2.5000000000000000e-01
ITEM: ATOMS id x y 
42464 -0.5 140.865 
42466 -1 141.731 
42469 -1.5 142.597 
42470 -0.5 142.597 
42473 -2 143.463 
42474 -1 143.463 
42463 -1.5311e-19 139.999 
42465 0.5 140.865 
42467 -1.5311e-19 141.731 
42468 1 141.731 
42471 0.5 142.597 
42472 1.5 142.597 
42475 -1.5311e-19 143.463 
42476 1 143.463 
42477 2 143.463 
ITEM: TIMESTEP
2000
ITEM: NUMBER OF ATOMS
15
ITEM: BOX BOUNDS ff fm pp
-4.1000000000000000e+01 4.1000000000000000e+01
0.0000000000000000e+00 2.0000000000000000e+02
-2.5000000000000000e-01 2.5000000000000000e-01
ITEM: ATOMS id x y 
42464 -0.5 140.861 
42466 -1 141.727 
42469 -1.5 142.593 
42470 -0.5 142.593 
42473 -2 143.459 
42474 -1 143.459 
42463 -6.12439e-19 139.995 
42465 0.5 140.861 
42467 -6.12439e-19 141.727 
42468 1 141.727 
42471 0.5 142.593 
42472 1.5 142.593 
42475 -6.12439e-19 143.459 
42476 1 143.459 
42477 2 143.459 
ITEM: TIMESTEP
3000
ITEM: NUMBER OF ATOMS
15
ITEM: BOX BOUNDS ff fm pp
-4.1000000000000000e+01 4.1000000000000000e+01
0.0000000000000000e+00 2.0000000000000000e+02
-2.5000000000000000e-01 2.5000000000000000e-01
ITEM: ATOMS id x y 
42464 -0.5 140.855 
42466 -1 141.721 
42469 -1.5 142.587 
42470 -0.5 142.587 
42473 -2 143.453 
42474 -1 143.453 
42463 -1.37799e-18 139.989 
42465 0.5 140.855 
42467 -1.37799e-18 141.721 
42468 1 141.721 
42471 0.5 142.587 
42472 1.5 142.587 
42475 -1.37799e-18 143.453 
42476 1 143.453 
42477 2 143.453 
ITEM: TIMESTEP
4000
ITEM: NUMBER OF ATOMS
15
ITEM: BOX BOUNDS ff fm pp
-4.1000000000000000e+01 4.1000000000000000e+01
0.0000000000000000e+00 2.0000000000000000e+02
-2.5000000000000000e-01 2.5000000000000000e-01
ITEM: ATOMS id x y 
42464 -0.5 140.846 
42466 -1 141.712 
42469 -1.5 142.578 
42470 -0.5 142.578 
42473 -2 143.444 
42474 -1 143.444 
42463 -2.44976e-18 139.98 
42465 0.5 140.846 
42467 -2.44976e-18 141.712 
42468 1 141.712 
42471 0.5 142.578 
42472 1.5 142.578 
42475 -2.44976e-18 143.444 
42476 1 143.444 
42477 2 143.444 
ITEM: TIMESTEP
5000
ITEM: NUMBER OF ATOMS
15
ITEM: BOX BOUNDS ff fm pp
-4.1000000000000000e+01 4.1000000000000000e+01
0.0000000000000000e+00 2.0000000000000000e+02
-2.5000000000000000e-01 2.5000000000000000e-01
ITEM: ATOMS id x y 
42464 -0.5 140.835 
42466 -1 141.701 
42469 -1.5 142.567 
42470 -0.5 142.567 
42473 -2 143.433 
42474 -1 143.433 
42463 -3.82774e-18 139.969 
42465 0.5 140.835 
42467 -3.82774e-18 141.701 
42468 1 141.701 
42471 0.5 142.567 
42472 1.5 142.567 
42475 -3.82774e-18 143.433 
42476 1 143.433 
42477 2 143.433 
ITEM: TIMESTEP
6000
ITEM: NUMBER OF ATOMS
15
ITEM: BOX BOUNDS ff fm pp
-4.1000000000000000e+01 4.1000000000000000e+01
0.0000000000000000e+00 2.0000000000000000e+02
-2.5000000000000000e-01 2.5000000000000000e-01
ITEM: ATOMS id x y 
42464 -0.5 140.821 
42466 -1 141.687 
42469 -1.5 142.553 
42470 -0.5 142.553 
42473 -2 143.419 
42474 -1 143.419 
42463 -5.51195e-18 139.955 
42465 0.5 140.821 
42467 -5.51195e-18 141.687 
42468 1 141.687 
42471 0.5 142.553 
42472 1.5 142.553 
42475 -5.51195e-18 143.419 
42476 1 143.419 
42477 2 143.419 
ITEM: TIMESTEP
7000
ITEM: NUMBER OF ATOMS
15
ITEM: BOX BOUNDS ff fm pp
-4.1000000000000000e+01 4.1000000000000000e+01
0.0000000000000000e+00 2.0000000000000000e+02
-2.5000000000000000e-01 2.5000000000000000e-01
ITEM: ATOMS id x y 
42464 -0.5 140.805 
42466 -1 141.671 
42469 -1.5 142.537 
42470 -0.5 142.537 
42473 -2 143.403 
42474 -1 143.403 
42463 -7.50238e-18 139.939 
42465 0.5 140.805 
42467 -7.50238e-18 141.671 
42468 1 141.671 
42471 0.5 142.537 
42472 1.5 142.537 
42475 -7.50238e-18 143.403 
42476 1 143.403 
42477 2 143.403 
ITEM: TIMESTEP
8000
ITEM: NUMBER OF ATOMS
15
ITEM: BOX BOUNDS ff fm pp
-4.1000000000000000e+01 4.1000000000000000e+01
0.0000000000000000e+00 2.0000000000000000e+02
-2.5000000000000000e-01 2.5000000000000000e-01
ITEM: ATOMS id x y 
42464 -0.5 140.786 
42466 -1 141.652 
42469 -1.5 142.518 
42470 -0.5 142.518 
42473 -2 143.384 
42474 -1 143.384 
42463 -9.79903e-18 139.92 
42465 0.5 140.786 
42467 -9.79903e-18 141.652 
42468 1 141.652 
42471 0.5 142.518 
42472 1.5 142.518 
42475 -9.79903e-18 143.384 
42476 1 143.384 
42477 2 143.384 
ITEM: TIMESTEP
9000
ITEM: NUMBER OF ATOMS
15
ITEM: BOX BOUNDS ff fm pp
-4.1000000000000000e+01 4.1000000000000000e+01
0.0000000000000000e+00 2.0000000000000000e+02
-2.5000000000000000e-01 2.5000000000000000e-01
ITEM: ATOMS id x y 
42463 -1.24019e-17 139.899 
42464 -0.5 140.765 
42466 -1 141.631 
42467 -1.24019e-17 141.631 
42469 -1.5 142.497 
42470 -0.5 142.497 
42473 -2 143.363 
42474 -1 143.363 
42475 -1.24019e-17 143.363 
42465 0.5 140.765 
42468 1 141.631 
42471 0.5 142.497 
42472 1.5 142.497 
42476 1 143.363 
42477 2 143.363 
ITEM: TIMESTEP
10000
ITEM: NUMBER OF ATOMS
15
ITEM: BOX BOUNDS ff fm pp
-4.1000000000000000e+01 4.1000000000000000e+01
0.0000000000000000e+00 2.0000000000000000e+02
-2.5000000000000000e-01 2.5000000000000000e-01
ITEM: ATOMS id x y 
42463 -1.5311e-17 139.875 
42464 -0.5 140.741 
42466 -1 141.607 
42467 -1.5311e-17 141.607 
42469 -1.5 142.473 
42470 -0.5 142.473 
42473 -2 143.339 
42474 -1 143.339 
42475 -1.5311e-17 143.339 
42465 0.5 140.741 
42468 1 141.607 
42471 0.5 142.473 
42472 1.5 142.473 
42476 1 143.339 
42477 2 143.339 
ITEM: TIMESTEP
11000
ITEM: NUMBER OF ATOMS
15
ITEM: BOX BOUNDS ff fm pp
-4.1000000000000000e+01 4.1000000000000000e+01
0.0000000000000000e+00 2.0000000000000000e+02
-2.5000000000000000e-01 2.5000000000000000e-01
ITEM: ATOMS id x y 
42463 -1.85263e-17 139.849 
42464 -0.5 140.715 
42466 -1 141.581 
42467 -1.85263e-17 141.581 
42469 -1.5 142.447 
42470 -0.5 142.447 
42473 -2 143.313 
42474 -1 143.313 
42475 -1.85263e-17 143.313 
42465 0.5 140.715 
42468 1 141.581 
42471 0.5 142.447 
42472 1.5 142.447 
42476 1 143.313 
42477 2 143.313 
ITEM: TIMESTEP
12000
ITEM: NUMBER OF ATOMS
15
ITEM: BOX BOUNDS ff fm pp
-4.1000000000000000e+01 4.1000000000000000e+01
0.0000000000000000e+00 2.0000000000000000e+02
-2.5000000000000000e-01 2.5000000000000000e-01
ITEM: ATOMS id x y 
42463 -2.20478e-17 139.82 
42464 -0.5 140.686 
42466 -1 141.552 
42467 -2.20478e-17 141.552 
42469 -1.5 142.418 
42470 -0.5 142.418 
42473 -2 143.284 
42474 -1 143.284 
42475 -2.20478e-17 143.284 
42465 0.5 140.686 
42468 1 141.552 
42471 0.5 142.418 
42472 1.5 142.418 
42476 1 143.284 
42477 2 143.284 
ITEM: TIMESTEP
13000
ITEM: NUMBER OF ATOMS
15
ITEM: BOX BOUNDS ff fm pp
-4.1000000000000000e+01 4.1000000000000000e+01
0.0000000000000000e+00 2.0000000000000000e+02
-2.5000000000000000e-01 2.5000000000000000e-01
ITEM: ATOMS id x y 
42463 -2.58756e-17 139.789 
42464 -0.5 140.655 
42466 -1 141.521 
42467 -2.58756e-17 141.521 
42469 -1.5 142.387 
42470 -0.5 142.387 
42473 -2 143.253 
42474 -1 143.253 
42475 -2.58756e-17 143.253 
42465 0.5 140.655 
42468 1 141.521 
42471 0.5 142.387 
42472 1.5 142.387 
42476 1 143.253 
42477 2 143.253 
ITEM: TIMESTEP
14000
ITEM: NUMBER OF ATOMS
15
ITEM: BOX BOUNDS ff fm pp
-4.1000000000000000e+01 4.1000000000000000e+01
0.0000000000000000e+00 2.0000000000000000e+02
-2.5000000000000000e-01 2.5000000000000000e-01
ITEM: ATOMS id x y 
42463 -3.00095e-17 139.755 
42464 -0.5 140.621 
42466 -1 141.487 
42467 -3.00095e-17 141.487 
42469 -1.5 142.353 
42470 -0.5 142.353 
42473 -2 143.219 
42474 -1 143.219 
42475 -3.00095e-17 143.219 
42465 0.5 140.621 
42468 1 141.487 
42471 0.5 142.353 
42472 1.5 142.353 
42476 1 143.219 
42477 2 143.219 
ITEM: TIMESTEP
15000
ITEM: NUMBER OF ATOMS
15
ITEM: BOX BOUNDS ff fm pp
-4.1000000000000000e+01 4.1000000000000000e+01
0.0000000000000000e+00 2.0000000000000000e+02
-2.5000000000000000e-01 2.5000000000000000e-01
ITEM: ATOMS id x y 
42463 -3.44497e-17 139.719 
42464 -0.5 140.585 
42466 -1 141.451 
42467 -3.44497e-17 141.451 
42469 -1.5 142.317 
42470 -0.5 142.317 
42473 -2 143.183 
42474 -1 143.183 
42475 -3.44497e-17 143.183 
42465 0.5 140.585 
42468 1 141.451 
42471 0.5 142.317 
42472 1.5 142.317 
42476 1 143.183 
42477 2 143.183 
ITEM: TIMESTEP
16000
ITEM: NUMBER OF ATOMS
15
ITEM: BOX BOUNDS ff fm pp
-4.1000000000000000e+01 4.1000000000000000e+01
0.0000000000000000e+00 2.0000000000000000e+02
-2.5000000000000000e-01 2.5000000000000000e-01
ITEM: ATOMS id x y 
42463 -3.9196e-17 139.68 
42464 -0.5 140.546 
42466 -1 141.412 
42467 -3.9196e-17 141.412 
42469 -1.5 142.278 
42470 -0.5 142.278 
42473 -2 143.144 
42474 -1 143.144 
42475 -3.9196e-17 143.144 
42465 0.5 140.546 
42468 1 141.412 
42471 0.5 142.278 
42472 1.5 142.278 
42476 1 143.144 
42477 2 143.144 
ITEM: TIMESTEP
17000
ITEM: NUMBER OF ATOMS
15
ITEM: BOX BOUNDS ff fm pp
-4.1000000000000000e+01 4.1000000000000000e+01
0.0000000000000000e+00 2.0000000000000000e+02
-2.5000000000000000e-01 2.5000000000000000e-01
ITEM: ATOMS id x y 
42463 -4.42485e-17 139.639 
42464 -0.5 140.505 
42466 -1 141.371 
42467 -4.42485e-17 141.371 
42469 -1.5 142.237 
42470 -0.5 142.237 
42473 -2 143.103 
42474 -1 143.103 
42475 -4.42485e-17 143.103 
42465 0.5 140.505 
42468 1 141.371 
42471 0.5 142.237 
42472 1.5 142.237 
42476 1 143.103 
42477 2 143.103 
ITEM: TIMESTEP
18000
ITEM: NUMBER OF ATOMS
15
ITEM: BOX BOUNDS ff fm pp
-4.1000000000000000e+01 4.1000000000000000e+01
0.0000000000000000e+00 2.0000000000000000e+02
-2.5000000000000000e-01 2.5000000000000000e-01
ITEM: ATOMS id x y 
42463 -4.96073e-17 139.595 
42464 -0.5 140.461 
42466 -1 141.327 
42467 -4.96073e-17 141.327 
42469 -1.5 142.193 
42470 -0.5 142.193 
42473 -2 143.059 
42474 -1 143.059 
42475 -4.96073e-17 143.059 
42465 0.5 140.461 
42468 1 141.327 
42471 0.5 142.193 
42472 1.5 142.193 
42476 1 143.059 
42477 2 143.059 
ITEM: TIMESTEP
19000
ITEM: NUMBER OF ATOMS
15
ITEM: BOX BOUNDS ff fm pp
-4.1000000000000000e+01 4.1000000000000000e+01
0.0000000000000000e+00 2.0000000000000000e+02
-2.5000000000000000e-01 2.5000000000000000e-01
ITEM: ATOMS id x y 
42463 -5.52722e-17 139.549 
42464 -0.5 140.415 
42466 -1 141.281 
42467 -5.52722e-17 141.281 
42469 -1.5 142.147 
42470 -0.5 142.147 
42473 -2 143.013 
42474 -1 143.013 
42475 -5.52722e-17 143.013 
42465 0.5 140.415 
42468 1 141.281 
42471 0.5 142.147 
42472 1.5 142.147 
42476 1 143.013 
42477 2 143.013 
ITEM: TIMESTEP
20000
ITEM: NUMBER OF ATOMS
15
ITEM: BOX BOUNDS ff fm pp
-4.1000000000000000e+01 4.1000000000000000e+01
0.0000000000000000e+00 2.0000000000000000e+02
-2.5000000000000000e-01 2.5000000000000000e-01
ITEM: ATOMS id x y 
42463 -6.12433e-17 139.5 
42464 -0.5 140.366 
42466 -1 141.232 
42467 -6.12433e-17 141.232 
42469 -1.5 142.098 
42470 -0.5 142.098 
42473 -2 142.964 
42474 -1 142.964 
42475 -6.12433e-17 142.964 
42465 0.5 140.366 
42468 1 141.232 
42471 0.5 142.098 
42472 1.5 142.098 
42476 1 142.964 
42477 2 142.964 
ITEM: TIMESTEP
21000
ITEM: NUMBER OF ATOMS
15
ITEM: BOX BOUNDS ff fm pp
-4.1000000000000000e+01 4.1000000000000000e+01
0.0000000000000000e+00 2.0000000000000000e+02
-2.5000000000000000e-01 2.5000000000000000e-01
ITEM: ATOMS id x y 
42463 -6.75205e-17 139.449 
42464 -0.5 140.315 
42466 -1 141.181 
42467 -6.75205e-17 141.181 
42469 -1.5 142.047 
42470 -0.5 142.047 
42473 -2 142.913 
42474 -1 142.913 
42475 -6.75205e-17 142.913 
42465 0.5 140.315 
42468 1 141.181 
42471 0.5 142.047 
42472 1.5 142.047 
42476 1 142.913 
42477 2 142.913 
ITEM: TIMESTEP
22000
ITEM: NUMBER OF ATOMS
15
ITEM: BOX BOUNDS ff fm pp
-4.1000000000000000e+01 4.1000000000000000e+01
0.0000000000000000e+00 2.0000000000000000e+02
-2.5000000000000000e-01 2.5000000000000000e-01
ITEM: ATOMS id x y 
42463 -7.41039e-17 139.395 
42464 -0.5 140.261 
42466 -1 141.127 
42467 -7.41039e-17 141.127 
42469 -1.5 141.993 
42470 -0.5 141.993 
42473 -2 142.859 
42474 -1 142.859 
42475 -7.41039e-17 142.859 
42465 0.5 140.261 
42468 1 141.127 
42471 0.5 141.993 
42472 1.5 141.993 
42476 1 142.859 
42477 2 142.859 
ITEM: TIMESTEP
23000
ITEM: NUMBER OF ATOMS
15
ITEM: BOX BOUNDS ff fm pp
-4.1000000000000000e+01 4.1000000000000000e+01
0.0000000000000000e+00 2.0000000000000000e+02
-2.5000000000000000e-01 2.5000000000000000e-01
ITEM: ATOMS id x y 
42463 -8.09934e-17 139.339 
42464 -0.5 140.205 
42466 -1 141.071 
42467 -8.09934e-17 141.071 
42469 -1.5 141.937 
42470 -0.5 141.937 
42473 -2 142.803 
42474 -1 142.803 
42475 -8.09934e-17 142.803 
42465 0.5 140.205 
42468 1 141.071 
42471 0.5 141.937 
42472 1.5 141.937 
42476 1 142.803 
42477 2 142.803 
ITEM: TIMESTEP
24000
ITEM: NUMBER OF ATOMS
15
ITEM: BOX BOUNDS ff fm pp
-4.1000000000000000e+01 4.1000000000000000e+01
0.0000000000000000e+00 2.0000000000000000e+02
-2.5000000000000000e-01 2.5000000000000000e-01
ITEM: ATOMS id x y 
42463 -8.8189e-17 139.28 
42464 -0.5 140.146 
42466 -1 141.012 
42467 -8.8189e-17 141.012 
42469 -1.5 141.878 
42470 -0.5 141.878 
42473 -2 142.744 
42474 -1 142.744 
42475 -8.8189e-17 142.744 
42465 0.5 140.146 
42468 1 141.012 
42471 0.5 141.878 
42472 1.5 141.878 
42476 1 142.744 
42477 2 142.744 
ITEM: TIMESTEP
25000
ITEM: NUMBER OF ATOMS
15
ITEM: BOX BOUNDS ff fm pp
-4.1000000000000000e+01 4.1000000000000000e+01
0.0000000000000000e+00 2.0000000000000000e+02
-2.5000000000000000e-01 2.5000000000000000e-01
ITEM: ATOMS id x y 
42463 -9.56907e-17 139.219 
42464 -0.5 140.085 
42466 -1 140.951 
42467 -9.56907e-17 140.951 
42469 -1.5 141.817 
42470 -0.5 141.817 
42473 -2 142.683 
42474 -1 142.683 
42475 -9.56907e-17 142.683 
42465 0.5 140.085 
42468 1 140.951 
42471 0.5 141.817 
42472 1.5 141.817 
42476 1 142.683 
42477 2 142.683 
ITEM: TIMESTEP
26000
ITEM: NUMBER OF ATOMS
15
ITEM: BOX BOUNDS ff fm pp
-4.1000000000000000e+01 4.1000000000000000e+01
0.0000000000000000e+00 2.0000000000000000e+02
-2.5000000000000000e-01 2.5000000000000000e-01
ITEM: ATOMS id x y 
42463 -1.03499e-16 139.155 
42464 -0.5 140.021 
42466 -1 140.887 
42467 -1.03499e-16 140.887 
42469 -1.5 141.753 
42470 -0.5 141.753 
42473 -2 142.619 
42474 -1 142.619 
42475 -1.03499e-16 142.619 
42465 0.5 140.021 
42468 1 140.887 
42471 0.5 141.753 
42472 1.5 141.753 
42476 1 142.619 
42477 2 142.619 
ITEM: TIMESTEP
27000
ITEM: NUMBER OF ATOMS
15
ITEM: BOX BOUNDS ff fm pp
-4.1000000000000000e+01 4.1000000000000000e+01
0.0000000000000000e+00 2.0000000000000000e+02
-2.5000000000000000e-01 2.5000000000000000e-01
ITEM: ATOMS id x y 
42463 -1.11613e-16 139.089 
42464 -0.5 139.955 
42466 -1 140.821 
42467 -1.11613e-16 140.821 
42469 -1.5 141.687 
42470 -0.5 141.687 
42473 -2 142.553 
42474 -1 142.553 
42475 -1.11613e-16 142.553 
42465 0.5 139.955 
42468 1 140.821 
42471 0.5 141.687 
42472 1.5 141.687 
42476 1 142.553 
42477 2 142.553 
ITEM: TIMESTEP
28000
ITEM: NUMBER OF ATOMS
15
ITEM: BOX BOUNDS ff fm pp
-4.1000000000000000e+01 4.1000000000000000e+01
0.0000000000000000e+00 2.0000000000000000e+02
-2.5000000000000000e-01 2.5000000000000000e-01
ITEM: ATOMS id x y 
42463 -1.20033e-16 139.02 
42464 -0.5 139.886 
42466 -1 140.752 
42467 -1.20033e-16 140.752 
42469 -1.5 141.618 
42470 -0.5 141.618 
42473 -2 142.484 
42474 -1 142.484 
42475 -1.20033e-16 142.484 
42465 0.5 139.886 
42468 1 140.752 
42471 0.5 141.618 
42472 1.5 141.618 
42476 1 142.484 
42477 2 142.484 
ITEM: TIMESTEP
29000
ITEM: NUMBER OF ATOMS
15
ITEM: BOX BOUNDS ff fm pp
-4.1000000000000000e+01 4.1000000000000000e+01
0.0000000000000000e+00 2.0000000000000000e+02
-2.5000000000000000e-01 2.5000000000000000e-01
ITEM: ATOMS id x y 
42463 -1.28759e-16 138.949 
42464 -0.5 139.815 
42466 -1 140.681 
42467 -1.28759e-16 140.681 
42469 -1.5 141.547 
42470 -0.5 141.547 
42473 -2 142.413 
42474 -1 142.413 
42475 -1.28759e-16 142.413 
42465 0.5 139.815 
42468 1 140.681 
42471 0.5 141.547 
42472 1.5 141.547 
42476 1 142.413 
42477 2 142.413 
ITEM: TIMESTEP
30000
ITEM: NUMBER OF ATOMS
15
ITEM: BOX BOUNDS ff fm pp
-4.1000000000000000e+01 4.1000000000000000e+01
0.0000000000000000e+00 2.0000000000000000e+02
-2.5000000000000000e-01 2.5000000000000000e-01
ITEM: ATOMS id x y 
42463 -1.37792e-16 138.875 
42464 -0.5 139.741 
42466 -1 140.607 
42467 -1.37792e-16 140.607 
42469 -1.5 141.473 
42470 -0.5 141.473 
42473 -2 142.339 
42474 -1 142.339 
42475 -1.37792e-16 142.339 
42465 0.5 139.741 
42468 1 140.607 
42471 0.5 141.473 
42472 1.5 141.473 
42476 1 142.339 
42477 2 142.339 
ITEM: TIMESTEP
31000
ITEM: NUMBER OF ATOMS
15
ITEM: BOX BOUNDS ff fm pp
-4.1000000000000000e+01 4.1000000000000000e+01
0.0000000000000000e+00 2.0000000000000000e+02
-2.5000000000000000e-01 2.5000000000000000e-01
ITEM: ATOMS id x y 
42463 -1.4713e-16 138.799 
42464 -0.5 139.665 
42466 -1 140.531 
42467 -1.4713e-16 140.531 
42469 -1.5 141.397 
42470 -0.5 141.397 
42473 -2 142.263 
42474 -1 142.263 
42475 -1.4713e-16 142.263 
42465 0.5 139.665 
42468 1 140.531 
42471 0.5 141.397 
42472 1.5 141.397 
42476 1 142.263 
42477 2 142.263 
ITEM: TIMESTEP
32000
ITEM: NUMBER OF ATOMS
15
ITEM: BOX BOUNDS ff fm pp
-4.1000000000000000e+01 4.1000000000000000e+01
0.0000000000000000e+00 2.0000000000000000e+02
-2.5000000000000000e-01 2.5000000000000000e-01
ITEM: ATOMS id x y 
42463 -1.56775e-16 138.72 
42464 -0.5 139.586 
42466 -1 140.452 
42467 -1.56775e-16 140.452 
42469 -1.5 141.318 
42470 -0.5 141.318 
42473 -2 142.184 
42474 -1 142.184 
42475 -1.56775e-16 142.184 
42465 0.5 139.586 
42468 1 140.452 
42471 0.5 141.318 
42472 1.5 141.318 
42476 1 142.184 
42477 2 142.184 
ITEM: TIMESTEP
33000
ITEM: NUMBER OF ATOMS
15
ITEM: BOX BOUNDS ff fm pp
-4.1000000000000000e+01 4.1000000000000000e+01
0.0000000000000000e+00 2.0000000000000000e+02
-2.5000000000000000e-01 2.5000000000000000e-01
ITEM: ATOMS id x y 
42463 -1.66726e-16 138.639 
42464 -0.5 139.505 
42466 -1 140.371 
42467 -1.66726e-16 140.371 
42469 -1.5 141.237 
42470 -0.5 141.237 
42473 -2 142.103 
42474 -1 142.103 
42475 -1.66726e-16 142.103 
42465 0.5 139.505 
42468 1 140.371 
42471 0.5 141.237 
42472 1.5 141.237 
42476 1 142.103 
42477 2 142.103 
ITEM: TIMESTEP
34000
ITEM: NUMBER OF ATOMS
15
ITEM: BOX BOUNDS ff fm pp
-4.1000000000000000e+01 4.1000000000000000e+01
0.0000000000000000e+00 2.0000000000000000e+02
-2.5000000000000000e-01 2.5000000000000000e-01
ITEM: ATOMS id x y 
42463 -1.76983e-16 138.555 
42464 -0.5 139.421 
42466 -1 140.287 
42467 -1.76983e-16 140.287 
42469 -1.5 141.153 
42470 -0.5 141.153 
42473 -2 142.019 
42474 -1 142.019 
42475 -1.76983e-16 142.019 
42465 0.5 139.421 
42468 1 140.287 
42471 0.5 141.153 
42472 1.5 141.153 
42476 1 142.019 
42477 2 142.019 
ITEM: TIMESTEP
35000
ITEM: NUMBER OF ATOMS
15
ITEM: BOX BOUNDS ff fm pp
-4.1000000000000000e+01 4.1000000000000000e+01
0.0000000000000000e+00 2.0000000000000000e+02
-2.5000000000000000e-01 2.5000000000000000e-01
ITEM: ATOMS id x y 
42463 -1.87547e-16 138.469 
42464 -0.5 139.335 
42466 -1 140.201 
42467 -1.87547e-16 140.201 
42469 -1.5 141.067 
42470 -0.5 141.067 
42473 -2 141.933 
42474 -1 141.933 
42475 -1.87547e-16 141.933 
42465 0.5 139.335 
42468 1 140.201 
42471 0.5 141.067 
42472 1.5 141.067 
42476 1 141.933 
42477 2 141.933 
ITEM: TIMESTEP
36000
ITEM: NUMBER OF ATOMS
15
ITEM: BOX BOUNDS ff fm pp
-4.1000000000000000e+01 4.1000000000000000e+01
0.0000000000000000e+00 2.0000000000000000e+02
-2.5000000000000000e-01 2.5000000000000000e-01
ITEM: ATOMS id x y 
42463 -1.98416e-16 138.38 
42464 -0.5 139.246 
42466 -1 140.112 
42467 -1.98416e-16 140.112 
42469 -1.5 140.978 
42470 -0.5 140.978 
42473 -2 141.844 
42474 -1 141.844 
42475 -1.98416e-16 141.844 
42465 0.5 139.246 
42468 1 140.112 
42471 0.5 140.978 
42472 1.5 140.978 
42476 1 141.844 
42477 2 141.844 
ITEM: TIMESTEP
37000
ITEM: NUMBER OF ATOMS
15
ITEM: BOX BOUNDS ff fm pp
-4.1000000000000000e+01 4.1000000000000000e+01
0.0000000000000000e+00 2.0000000000000000e+02
-2.5000000000000000e-01 2.5000000000000000e-01
ITEM: ATOMS id x y 
42463 -2.09592e-16 138.289 
42464 -0.5 139.155 
42466 -1 140.021 
42467 -2.09592e-16 140.021 
42469 -1.5 140.887 
42470 -0.5 140.887 
42473 -2 141.753 
42474 -1 141.753 
42475 -2.09592e-16 141.753 
42465 0.5 139.155 
42468 1 140.021 
42471 0.5 140.887 
42472 1.5 140.887 
42476 1 141.753 
42477 2 141.753 
ITEM: TIMESTEP
38000
ITEM: NUMBER OF ATOMS
15
ITEM: BOX BOUNDS ff fm pp
-4.1000000000000000e+01 4.1000000000000000e+01
0.0000000000000000e+00 2.0000000000000000e+02
-2.5000000000000000e-01 2.5000000000000000e-01
ITEM: ATOMS id x y 
42463 -2.21074e-16 138.195 
42464 -0.5 139.061 
42466 -1 139.927 
42467 -2.21074e-16 139.927 
42469 -1.5 140.793 
42470 -0.5 140.793 
42473 -2 141.659 
42474 -1 141.659 
42475 -2.21074e-16 141.659 
42465 0.5 139.061 
42468 1 139.927 
42471 0.5 140.793 
42472 1.5 140.793 
42476 1 141.659 
42477 2 141.659 
ITEM: TIMESTEP
39000
ITEM: NUMBER OF ATOMS
15
ITEM: BOX BOUNDS ff fm pp
-4.1000000000000000e+01 4.1000000000000000e+01
0.0000000000000000e+00 2.0000000000000000e+02
-2.5000000000000000e-01 2.5000000000000000e-01
ITEM: ATOMS id x y 
42463 -2.32771e-16 138.099 
42464 -0.5 138.965 
42466 -1 139.831 
42467 -2.32839e-16 139.831 
42469 -1.5 140.697 
42470 -0.5 140.697 
42473 -2 141.563 
42474 -1 141.563 
42475 -2.32908e-16 141.563 
42465 0.5 138.965 
42468 1 139.831 
42471 0.5 140.697 
42472 1.5 140.697 
42476 1 141.563 
42477 2 141.563 
ITEM: TIMESTEP
40000
ITEM: NUMBER OF ATOMS
15
ITEM: BOX BOUNDS ff fm pp
-4.1000000000000000e+01 4.1000000000000000e+01
0.0000000000000000e+00 2.0000000000000000e+02
-2.5000000000000000e-01 2.5000000000000000e-01
ITEM: ATOMS id x y 
42463 -2.44556e-16 138 
42464 -0.5 138.866 
42466 -1 139.732 
42467 -2.44857e-16 139.732 
42469 -1.5 140.598 
42470 -0.5 140.598 
42473 -2 141.464 
42474 -1 141.464 
42475 -2.45157e-16 141.464 
42465 0.5 138.866 
42468 1 139.732 
42471 0.5 140.598 
42472 1.5 140.598 
42476 1 141.464 
42477 2 141.464 
ITEM: TIMESTEP
41000
ITEM: NUMBER OF ATOMS
15
ITEM: BOX BOUNDS ff fm pp
-4.1000000000000000e+01 4.1000000000000000e+01
0.0000000000000000e+00 2.0000000000000000e+02
-2.5000000000000000e-01 2.5000000000000000e-01
ITEM: ATOMS id x y 
42463 -2.5643e-16 137.899 
42464 -0.5 138.765 
42466 -1 139.631 
42467 -2.57125e-16 139.631 
42469 -1.5 140.497 
42470 -0.5 140.497 
42473 -2 141.363 
42474 -1 141.363 
42475 -2.57821e-16 141.363 
42465 0.5 138.765 
42468 1 139.631 
42471 0.5 140.497 
42472 1.5 140.497 
42476 1 141.363 
42477 2 141.363 
ITEM: TIMESTEP
42000
ITEM: NUMBER OF ATOMS
15
ITEM: BOX BOUNDS ff fm pp
-4.1000000000000000e+01 4.1000000000000000e+01
0.0000000000000000e+00 2.0000000000000000e+02
-2.5000000000000000e-01 2.5000000000000000e-01
ITEM: ATOMS id x y 
42463 -2.68386e-16 137.795 
42464 -0.5 138.661 
42466 -1 139.527 
42467 -2.69644e-16 139.527 
42469 -1.5 140.393 
42470 -0.5 140.393 
42473 -2 141.259 
42474 -1 141.259 
42475 -2.70903e-16 141.259 
42465 0.5 138.661 
42468 1 139.527 
42471 0.5 140.393 
42472 1.5 140.393 
42476 1 141.259 
42477 2 141.259 
ITEM: TIMESTEP
43000
ITEM: NUMBER OF ATOMS
15
ITEM: BOX BOUNDS ff fm pp
-4.1000000000000000e+01 4.1000000000000000e+01
0.0000000000000000e+00 2.0000000000000000e+02
-2.5000000000000000e-01 2.5000000000000000e-01
ITEM: ATOMS id x y 
42463 -2.80277e-16 137.689 
42464 -0.5 138.555 
42466 -1 139.421 
42467 -2.82377e-16 139.421 
42469 -1.5 140.287 
42470 -0.5 140.287 
42473 -2 141.153 
42474 -1 141.153 
42475 -2.84476e-16 141.153 
42465 0.5 138.555 
42468 1 139.421 
42471 0.5 140.287 
42472 1.5 140.287 
42476 1 141.153 
42477 2 141.153 
ITEM: TIMESTEP
44000
ITEM: NUMBER OF ATOMS
15
ITEM: BOX BOUNDS ff fm pp
-4.1000000000000000e+01 4.1000000000000000e+01
0.0000000000000000e+00 2.0000000000000000e+02
-2.5000000000000000e-01 2.5000000000000000e-01
ITEM: ATOMS id x y 
42463 -2.92039e-16 137.58 
42464 -0.5 138.446 
42466 -1 139.312 
42467 -2.95307e-16 139.312 
42469 -1.5 140.178 
42470 -0.5 140.178 
42473 -2 141.044 
42474 -1 141.044 
42475 -2.98574e-16 141.044 
42465 0.5 138.446 
42468 1 139.312 
42471 0.5 140.178 
42472 1.5 140.178 
42476 1 141.044 
42477 2 141.044 
ITEM: TIMESTEP
45000
ITEM: NUMBER OF ATOMS
15
ITEM: BOX BOUNDS ff fm pp
-4.1000000000000000e+01 4.1000000000000000e+01
0.0000000000000000e+00 2.0000000000000000e+02
-2.5000000000000000e-01 2.5000000000000000e-01
ITEM: ATOMS id x y 
42463 -3.03671e-16 137.469 
42464 -0.5 138.335 
42466 -1 139.201 
42467 -3.08433e-16 139.201 
42469 -1.5 140.067 
42470 -0.5 140.067 
42473 -2 140.933 
42474 -1 140.933 
42475 -3.13196e-16 140.933 
42465 0.5 138.335 
42468 1 139.201 
42471 0.5 140.067 
42472 1.5 140.067 
42476 1 140.933 
42477 2 140.933 
ITEM: TIMESTEP
46000
ITEM: NUMBER OF ATOMS
15
ITEM: BOX BOUNDS ff fm pp
-4.1000000000000000e+01 4.1000000000000000e+01
0.0000000000000000e+00 2.0000000000000000e+02
-2.5000000000000000e-01 2.5000000000000000e-01
ITEM: ATOMS id x y 
42463 -3.15172e-16 137.355 
42464 -0.5 138.221 
42466 -1 139.087 
42467 -3.21757e-16 139.087 
42469 -1.5 139.953 
42470 -0.5 139.953 
42473 -2 140.819 
42474 -1 140.819 
42475 -3.28342e-16 140.819 
42465 0.5 138.221 
42468 1 139.087 
42471 0.5 139.953 
42472 1.5 139.953 
42476 1 140.819 
42477 2 140.819 
ITEM: TIMESTEP
47000
ITEM: NUMBER OF ATOMS
15
ITEM: BOX BOUNDS ff fm pp
-4.1000000000000000e+01 4.1000000000000000e+01
0.0000000000000000e+00 2.0000000000000000e+02
-2.5000000000000000e-01 2.5000000000000000e-01
ITEM: ATOMS id x y 
42463 -3.26544e-16 137.239 
42464 -0.5 138.105 
42466 -1 138.971 
42467 -3.35278e-16 138.971 
42469 -1.5 139.837 
42470 -0.5 139.837 
42473 -2 140.703 
42474 -1 140.703 
42475 -3.44012e-16 140.703 
42465 0.5 138.105 
42468 1 138.971 
42471 0.5 139.837 
42472 1.5 139.837 
42476 1 140.703 
42477 2 140.703 
ITEM: TIMESTEP
48000
ITEM: NUMBER OF ATOMS
15
ITEM: BOX BOUNDS ff fm pp
-4.1000000000000000e+01 4.1000000000000000e+01
0.0000000000000000e+00 2.0000000000000000e+02
-2.5000000000000000e-01 2.5000000000000000e-01
ITEM: ATOMS id x y 
42463 -3.3776e-16 137.12 
42464 -0.5 137.986 
42466 -1 138.852 
42467 -3.4899e-16 138.852 
42469 -1.5 139.718 
42470 -0.5 139.718 
42473 -2 140.584 
42474 -1 140.584 
42475 -3.6022e-16 140.584 
42465 0.5 137.986 
42468 1 138.852 
42471 0.5 139.718 
42472 1.5 139.718 
42476 1 140.584 
42477 2 140.584 
ITEM: TIMESTEP
49000
ITEM: NUMBER OF ATOMS
15
ITEM: BOX BOUNDS ff fm pp
-4.1000000000000000e+01 4.1000000000000000e+01
0.0000000000000000e+00 2.0000000000000000e+02
-2.5000000000000000e-01 2.5000000000000000e-01
ITEM: ATOMS id x y 
42463 -3.48658e-16 136.999 
42464 -0.5 137.865 
42466 -1 138.731 
42467 -3.62852e-16 138.731 
42469 -1.5 139.597 
42470 -0.5 139.597 
42473 -2 140.463 
42474 -1 140.463 
42475 -3.77045e-16 140.463 
42465 0.5 137.865 
42468 1 138.731 
42471 0.5 139.597 
42472 1.5 139.597 
42476 1 140.463 
42477 2 140.463 
ITEM: TIMESTEP
50000
ITEM: NUMBER OF ATOMS
15
ITEM: BOX BOUNDS ff fm pp
-4.1000000000000000e+01 4.1000000000000000e+01
0.0000000000000000e+00 2.0000000000000000e+02
-2.5000000000000000e-01 2.5000000000000000e-01
ITEM: ATOMS id x y 
42463 -3.59203e-16 136.875 
42464 -0.5 137.741 
42466 -1 138.607 
42467 -3.76855e-16 138.607 
42469 -1.5 139.473 
42470 -0.5 139.473 
42473 -2 140.339 
42474 -1 140.339 
42475 -3.94507e-16 140.339 
42465 0.5 137.741 
42468 1 138.607 
42471 0.5 139.473 
42472 1.5 139.473 
42476 1 140.339 
42477 2 140.339 
ITEM: TIMESTEP
51000
ITEM: NUMBER OF ATOMS
15
ITEM: BOX BOUNDS ff fm pp
-4.1000000000000000e+01 4.1000000000000000e+01
0.0000000000000000e+00 2.0000000000000000e+02
-2.5000000000000000e-01 2.5000000000000000e-01
ITEM: ATOMS id x y 
42463 -3.69207e-16 136.749 
42464 -0.5 137.615 
42466 -1 138.481 
42467 -3.90952e-16 138.481 
42469 -1.5 139.347 
42470 -0.5 139.347 
42473 -2 140.213 
42474 -1 140.213 
42475 -4.12698e-16 140.213 
42465 0.5 137.615 
42468 1 138.481 
42471 0.5 139.347 
42472 1.5 139.347 
42476 1 140.213 
42477 2 140.213 
ITEM: TIMESTEP
52000
ITEM: NUMBER OF ATOMS
15
ITEM: BOX BOUNDS ff fm pp
-4.1000000000000000e+01 4.1000000000000000e+01
0.0000000000000000e+00 2.0000000000000000e+02
-2.5000000000000000e-01 2.5000000000000000e-01
ITEM: ATOMS id x y 
42463 -3.78651e-16 136.62 
42464 -0.5 137.486 
42466 -1 138.352 
42467 -4.0514e-16 138.352 
42469 -1.5 139.218 
42470 -0.5 139.218 
42473 -2 140.084 
42474 -1 140.084 
42475 -4.31628e-16 140.084 
42465 0.5 137.486 
42468 1 138.352 
42471 0.5 139.218 
42472 1.5 139.218 
42476 1 140.084 
42477 2 140.084 
ITEM: TIMESTEP
53000
ITEM: NUMBER OF ATOMS
15
ITEM: BOX BOUNDS ff fm pp
-4.1000000000000000e+01 4.1000000000000000e+01
0.0000000000000000e+00 2.0000000000000000e+02
-2.5000000000000000e-01 2.5000000000000000e-01
ITEM: ATOMS id x y 
42463 -3.87756e-16 136.489 
42464 -0.5 137.355 
42466 -1 138.221 
42467 -4.19472e-16 138.221 
42469 -1.5 139.087 
42470 -0.5 139.087 
42473 -2 139.953 
42474 -1 139.953 
42475 -4.51187e-16 139.953 
42465 0.5 137.355 
42468 1 138.221 
42471 0.5 139.087 
42472 1.5 139.087 
42476 1 139.953 
42477 2 139.953 
ITEM: TIMESTEP
54000
ITEM: NUMBER OF ATOMS
15
ITEM: BOX BOUNDS ff fm pp
-4.1000000000000000e+01 4.1000000000000000e+01
0.0000000000000000e+00 2.0000000000000000e+02
-2.5000000000000000e-01 2.5000000000000000e-01
ITEM: ATOMS id x y 
42463 -3.96738e-16 136.355 
42464 -0.5 137.221 
42466 -1 138.087 
42467 -4.34003e-16 138.087 
42469 -1.5 138.953 
42470 -0.5 138.953 
42473 -2 139.819 
42474 -1 139.819 
42475 -4.71267e-16 139.819 
42465 0.5 137.221 
42468 1 138.087 
42471 0.5 138.953 
42472 1.5 138.953 
42476 1 139.819 
42477 2 139.819 
ITEM: TIMESTEP
55000
ITEM: NUMBER OF ATOMS
15
ITEM: BOX BOUNDS ff fm pp
-4.1000000000000000e+01 4.1000000000000000e+01
0.0000000000000000e+00 2.0000000000000000e+02
-2.5000000000000000e-01 2.5000000000000000e-01
ITEM: ATOMS id x y 
42463 -4.06433e-16 136.219 
42464 -0.5 137.085 
42466 -1 137.951 
42467 -4.48941e-16 137.951 
42469 -1.5 138.817 
42470 -0.5 138.817 
42473 -2 139.683 
42474 -1 139.683 
42475 -4.9145e-16 139.683 
42465 0.5 137.085 
42468 1 137.951 
42471 0.5 138.817 