LAMMPS (3 Mar 2020)
# Five large disc-shaped intruders dropping from a height onto a 2d bed of disc particles (d=0.5)
# Diameter of the intruders = 2.54
# Height of the intruders from the particle bed = 5.0
# Density of the intruders = 5 different values

dimension	2
atom_style	sphere
boundary	f fm p
newton		off
comm_modify	vel yes

read_data	data.final
  orthogonal box = (-41 0 -0.25) to (41 200 0.25)
  2 by 3 by 1 MPI processor grid
  reading atoms ...
  42477 atoms
  reading velocities ...
  42477 velocities
  read_data CPU = 1.34225 secs

neighbor	0.2 bin
neigh_modify	delay 0

group		remaining type 1
42462 atoms in group remaining
group		intruder type 2
15 atoms in group intruder
set 		type 1 density/disc 1.0	# The granular bed of particles
  42462 settings made for density/disc
set 		type 2 density/disc 210	# The intruders
  15 settings made for density/disc

# Different densities are assigned to the intruders (D = 2.54)


pair_style      gran/hertz/history 2.0e6 2.456e6 1000.0 1000.0 0.5 1
pair_coeff	* *

# timestep	0.00001
timestep	0.00005

fix     1 remaining nve/sphere disc
fix		2 all gravity 1.0 spherical 0.0 -180.0
fix     4 intruder rigid/nve single
1 rigid bodies with 15 atoms

fix             xwalls all wall/gran hertz/history 2.0e6 2.456e6 1000.0 1000.0 0.5 1                 xplane -41 41
fix		ywalls all wall/gran hertz/history 2.0e6 2.456e6 1000.0 1000.0 0.5 1 		yplane 0 NULL

dump            4a all custom 1000 dump.all id type x y vx vy fx fy omegaz diameter # Change the frequency of output according to the memory consumed by this file
dump            4b intruder custom 1000 dump.position id x y


compute 	101 all stress/atom NULL pair
compute 	102 all contact/atom
dump        133 intruder custom 1000 dump.intruder id type x y vx vy fx fy omegaz tqz c_101[1] c_101[2] c_101[4] c_102

fix         3 all enforce2d

compute		1 all erotate/sphere
thermo_style	custom step atoms ke c_1 vol
thermo		1000
thermo_modify	lost ignore norm no
compute_modify	thermo_temp dynamic/dof yes

run		10000000
Neighbor list info ...
  update every 1 steps, delay 0 steps, check yes
  max neighbors/atom: 2000, page size: 100000
  master list distance cutoff = 1.2
  ghost atom cutoff = 1.2
  binsize = 0.6, bins = 137 334 1
  2 neighbor lists, perpetual/occasional/extra = 1 1 0
  (1) pair gran/hertz/history, perpetual
      attributes: half, newton off, size, history
      pair build: half/size/bin/newtoff
      stencil: half/bin/2d/newtoff
      bin: standard
  (2) compute contact/atom, occasional
      attributes: half, newton off, size
      pair build: half/size/bin/newtoff
      stencil: half/bin/2d/newtoff
      bin: standard
Per MPI rank memory allocation (min/avg/max) = 16.76 | 17.35 | 18.46 Mbytes
Step Atoms KinEng c_1 Volume 
       0    42477 0.0083272227 4.7582332e-06        16400 
    1000    42477     4.833753   0.38833451        16400 
    2000    42477    13.369715   0.19868834        16400 
    3000    42477    28.560992   0.12979851        16400 
    4000    42477    50.107309  0.093596564        16400 
    5000    42477    77.875977  0.069241527        16400 
    6000    42477    111.84958  0.054099574        16400 
    7000    42477     152.0736  0.043763034        16400 
    8000    42477    198.44868  0.034930107        16400 
    9000    42477    251.02211  0.028140315        16400 
   10000    42477     309.7695  0.024337602        16400 
   11000    42477    374.68036  0.019249599        16400 
   12000    42477    445.80311  0.016685484        16400 
   13000    42477    523.07285  0.013883979        16400 
   14000    42477    606.51861  0.011846171        16400 
   15000    42477    696.12632  0.010123168        16400 
   16000    42477    791.90816  0.008698654        16400 
   17000    42477    893.89179 0.0073522038        16400 
   18000    42477    1002.0812 0.0061815881        16400 
   19000    42477    1116.4868 0.0053132331        16400 
   20000    42477    1237.0967  0.004653347        16400 
   21000    42477    1363.8949 0.0042076815        16400 
   22000    42477    1496.8895 0.0037563309        16400 
   23000    42477    1636.0856 0.0033287747        16400 
   24000    42477    1781.4596 0.0029249039        16400 
   25000    42477    1933.0265 0.0026402938        16400 
   26000    42477    2090.7732 0.0023800284        16400 
   27000    42477    2254.6912 0.0021551841        16400 
   28000    42477    2424.8117 0.0019953888        16400 
   29000    42477    2601.1028 0.0018015268        16400 
   30000    42477    2783.5652 0.0017308947        16400 
   31000    42477    2972.1899 0.0016447487        16400 
   32000    42477    3166.9747  0.001664422        16400 
   33000    42477    3367.9337 0.0014443479        16400 
   34000    42477    3575.0772 0.0013180068        16400 
   35000    42477    3788.4175 0.0012349396        16400 
   36000    42477    4007.9527 0.0011271846        16400 
   37000    42477    4233.6882 0.0010616113        16400 
   38000    42477    4465.6251 0.0010339299        16400 
   39000    42477    4703.7582 0.00088388523        16400 
   40000    42477    4948.0927 0.00092667122        16400 
   41000    42477     5198.608 0.00083619758        16400 
   42000    42477    5455.3091 0.0007777012        16400 
   43000    42477    5718.1983 0.00077677646        16400 
   44000    42477    5987.2693 0.0007454247        16400 
   45000    42477    6262.5337 0.00074986285        16400 
   46000    42477    6543.9816 0.00067139745        16400 
   47000    42477    6831.5927 0.00071052483        16400 
   48000    42477    7125.3806 0.00065858428        16400 
   49000    42477    7425.3312 0.00061063141        16400 
   50000    42477    7731.4564 0.00061978234        16400 
   51000    42477    8043.7628 0.00056800721        16400 
   52000    42477    8362.2417 0.00051609156        16400 
   53000    42477    8686.9174 0.00048521528        16400 
   54000    42477    9017.7883 0.00045869975        16400 
   55000    42477    9354.8611 0.00044174367        16400 
   56000    42477     9698.138 0.00044550593        16400 
   57000    42477    10047.602 0.00045731017        16400 
   58000    42477    10403.257 0.00040674193        16400 
   59000    42477    10765.099 0.00040670416        16400 
   60000    42477    11133.123 0.00037221151        16400 
   61000    42477    11507.347 0.00039188616        16400 
   62000    42477    11887.754 0.00040669949        16400 
   63000    42477    12274.341 0.00037088308        16400 
   64000    42477    12667.113 0.00040367776        16400 
   65000    42477    13066.049 0.00036393412        16400 
   66000    42477    13471.162 0.00039833775        16400 
   67000    42477     13882.45 0.00039824823        16400 
   68000    42477    14299.901 0.00032574867        16400 
   69000    42477    14723.538 0.00033466218        16400 
   70000    42477    15153.357 0.00033514926        16400 
   71000    42477     15589.37 0.00031004995        16400 
   72000    42477    16031.585 0.00028849888        16400 
   73000    42477    16479.992 0.00031638452        16400 
   74000    42477    16934.595 0.00029680509        16400 
   75000    42477    17395.388 0.00030071385        16400 
   76000    42477    17862.367 0.00029418016        16400 
   77000    42477    18335.539 0.00026532395        16400 
   78000    42477    18814.898 0.00026107009        16400 
   79000    42477    19300.445 0.00025180262        16400 
   80000    42477    19792.181 0.00027601972        16400 
   81000    42477    20290.093 0.00022666117        16400 
   82000    42477    20794.186 0.00023518924        16400 
   83000    42477    21304.454 0.00025837282        16400 
   84000    42477    21820.893 0.00021552036        16400 
   85000    42477    22343.504 0.00022632606        16400 
   86000    42477     22872.29 0.00022380567        16400 
   87000    42477     23407.26 0.00020914018        16400 
   88000    42477    23948.421 0.00021348912        16400 
   89000    42477    24495.774 0.00026054254        16400 
   90000    42477    25049.322 0.00027332409        16400 
   91000    42477    25609.063   0.00025076        16400 
   92000    42477    26174.994 0.00021358276        16400 
   93000    42477    26747.117 0.00018003141        16400 
   94000    42477    27325.428 0.00020634108        16400 
   95000    42477    27909.927 0.00019705869        16400 
   96000    42477    28500.617 0.00017894384        16400 
   97000    42477    29097.494 0.00016505685        16400 
   98000    42477    29700.556 0.0002019204        16400 
   99000    42477    30309.797 0.00018834354        16400 
  100000    42477    30925.214 0.00018580217        16400 
  101000    42477    31546.806 0.00020225257        16400 
  102000    42477    32174.571 0.0001902988        16400 
  103000    42477    32808.512 0.00019496779        16400 
  104000    42477    33448.632 0.0001824606        16400 
  105000    42477    34094.939   0.00018828        16400 
  106000    42477    34747.435 0.0001749411        16400 
  107000    42477    35406.124 0.00017521756        16400 
  108000    42477    36071.007 0.0001866526        16400 
  109000    42477    36742.079 0.00016605155        16400 
  110000    42477    37419.342 0.00017410002        16400 
  111000    42477    38102.793 0.00017965977        16400 
  112000    42477    38792.432 0.00018681337        16400 
  113000    42477    39488.263 0.00020179141        16400 
  114000    42477    40190.283 0.00024472588        16400 
  115000    42477    40898.489 0.00024004132        16400 
  116000    42477    41612.877 0.00027455969        16400 
  117000    42477    42333.443 0.00029481038        16400 
  118000    42477    43060.186 0.00029801921        16400 
  119000    42477    43793.103 0.00035278622        16400 
  120000    42477    44532.196 0.00040292282        16400 
  121000    42477    45277.467 0.00042381954        16400 
  122000    42477    46028.921 0.00021669873        16400 
  123000    42477    46786.563 0.00012413811        16400 
  124000    42477    47550.395 0.00013344142        16400 
  125000    42477    48279.273    2.6186288        16400 
  126000    42477    48847.078    26.665963        16400 
  127000    42477    49543.546    17.635663        16400 
  128000    42477     50243.95     17.26051        16400 
  129000    42477    50969.231     15.99948        16400 
  130000    42477    51715.233    15.019055        16400 
  131000    42477    52340.112    22.844333        16400 
  132000    42477    52976.228    28.298057        16400 
  133000    42477    53659.215    25.803006        16400 
  134000    42477    54367.978    21.592165        16400 
  135000    42477    54981.824    34.884414        16400 
  136000    42477    55582.246    34.523245        16400 
  137000    42477    56071.944    35.071085        16400 
  138000    42477    56587.467    41.648678        16400 
  139000    42477    57217.766    28.052986        16400 
  140000    42477    57715.788    38.489127        16400 
  141000    42477    58218.504    47.994254        16400 
  142000    42477    58681.057    40.713209        16400 
  143000    42477    59161.281    36.937675        16400 
  144000    42477    59690.099    34.851976        16400 
  145000    42477    60224.288    37.148434        16400 
  146000    42477    60777.233    43.065991        16400 
  147000    42477    61369.589    36.637384        16400 
  148000    42477    61940.175    32.616332        16400 
  149000    42477    62390.094    42.974737        16400 
  150000    42477    62740.294    57.026027        16400 
  151000    42477    62984.654    66.492093        16400 
  152000    42477    63353.105    61.205965        16400 
  153000    42477    63849.558    53.047613        16400 
  154000    42477    64379.463    41.720359        16400 
  155000    42477    64945.501    39.702697        16400 
  156000    42477    65584.192    39.291706        16400 
  157000    42477     66211.47    44.741961        16400 
  158000    42477    66739.333    45.491997        16400 
  159000    42477    67261.285    51.708393        16400 
  160000    42477    67833.045    53.427655        16400 
  161000    42477    68327.589    49.051122        16400 
  162000    42477     68801.79    47.592475        16400 
  163000    42477    69250.698    51.455279        16400 
  164000    42477    69741.183    64.358215        16400 
  165000    42477    70289.816    53.117419        16400 
  166000    42477    70818.658    53.914213        16400 
  167000    42477    71289.471    50.212128        16400 
  168000    42477    71759.618    66.363693        16400 
  169000    42477    72342.961    49.707876        16400 
  170000    42477    72826.426    54.389988        16400 
  171000    42477    73257.368    53.776476        16400 
  172000    42477    73554.757    63.792377        16400 
  173000    42477    73811.434    69.966534        16400 
  174000    42477    74340.198    53.315003        16400 
  175000    42477    74839.651    51.408005        16400 
  176000    42477    75373.001    54.174005        16400 
  177000    42477    75925.302    48.662438        16400 
  178000    42477    76516.989    52.459203        16400 
  179000    42477    77016.091    58.460301        16400 
  180000    42477    77624.856    49.595356        16400 
  181000    42477    78023.851     62.28989        16400 
  182000    42477    78401.588    62.681924        16400 
  183000    42477    78714.711    73.476311        16400 
  184000    42477    79167.332     69.74822        16400 
  185000    42477    79443.068    84.541892        16400 
  186000    42477    79806.175    71.346033        16400 
  187000    42477    80192.765    78.186555        16400 
  188000    42477    80677.541    60.965337        16400 
  189000    42477    81014.317    76.133607        16400 
  190000    42477    81412.925    68.182381        16400 
  191000    42477    81447.017    77.294167        16400 
  192000    42477    81690.247     83.21158        16400 
  193000    42477    82066.951    68.924463        16400 
  194000    42477     82363.94    71.160167        16400 
  195000    42477    82564.792    75.037969        16400 
  196000    42477    82734.583    77.345017        16400 
  197000    42477    82844.268     78.68471        16400 
  198000    42477    83199.981    79.621836        16400 
  199000    42477    83681.145    66.025425        16400 
  200000    42477    83920.983    88.479413        16400 
  201000    42477     84142.57    86.994081        16400 
  202000    42477    84403.093    72.377684        16400 
  203000    42477    84811.058     74.98202        16400 
  204000    42477    85110.522    71.437114        16400 
  205000    42477      85222.4    105.14642        16400 
  206000    42477    85422.291    87.204452        16400 
  207000    42477    85799.658     78.78958        16400 
  208000    42477     86175.74    82.506916        16400 
  209000    42477    86410.955    79.830099        16400 
  210000    42477    86640.515    91.336626        16400 
  211000    42477    86956.791    83.672555        16400 
  212000    42477    87142.739    87.174084        16400 
  213000    42477    87457.335    83.762897        16400 
  214000    42477     87791.08    86.434316        16400 
  215000    42477    88105.114    69.172189        16400 
  216000    42477    88555.992    76.270124        16400 
  217000    42477    88846.655      81.1268        16400 
  218000    42477    89060.511    80.828427        16400 
  219000    42477    89139.138    88.242324        16400 
  220000    42477    89317.659    81.080362        16400 
  221000    42477     89349.21    100.20467        16400 
  222000    42477    89639.484    87.010086        16400 
  223000    42477    89811.139    84.697915        16400 
  224000    42477    90081.656    75.344893        16400 
  225000    42477    90563.787    77.733649        16400 
  226000    42477    90755.581    90.951411        16400 
  227000    42477    90885.036     102.6097        16400 
  228000    42477    91118.167    95.886696        16400 
  229000    42477    91425.197    82.607624        16400 
  230000    42477    91972.462    83.767916        16400 
  231000    42477    92293.432    105.25846        16400 
  232000    42477     92710.39    80.452929        16400 
  233000    42477    92857.438     91.57338        16400 
  234000    42477    92587.052    97.063901        16400 
  235000    42477    92568.679    104.83611        16400 
  236000    42477    92642.479    94.329866        16400 
  237000    42477    92765.242    105.80844        16400 
  238000    42477    92930.068    100.03737        16400 
  239000    42477    93352.486    87.571797        16400 
  240000    42477    93930.192    75.723896        16400 
  241000    42477    94427.004    80.639672        16400 
  242000    42477    94916.214    74.366366        16400 
  243000    42477    95158.972    88.584201        16400 
  244000    42477    95113.633    118.78097        16400 
  245000    42477    95120.868    119.62485        16400 
  246000    42477    95453.809    94.172734        16400 
  247000    42477    95754.261     95.42814        16400 
  248000    42477    96105.825    86.256005        16400 
  249000    42477    96397.335    102.98446        16400 
  250000    42477    96608.399    123.27972        16400 
  251000    42477    96719.988    115.01139        16400 
  252000    42477    97115.575    111.89852        16400 
  253000    42477    97383.708    90.215098        16400 
  254000    42477     97562.15    105.58462        16400 
  255000    42477    97670.914     105.2298        16400 
  256000    42477    97985.742    94.051912        16400 
  257000    42477    98313.886    95.462582        16400 
  258000    42477    98412.324    96.356928        16400 
  259000    42477    98303.243    118.19149        16400 
  260000    42477    98300.639    115.96173        16400 
  261000    42477    98505.047    112.42844        16400 
  262000    42477    98807.144    113.49457        16400 
  263000    42477    98871.675    121.95792        16400 
  264000    42477    99092.923    111.19894        16400 
  265000    42477    99224.266     110.9771        16400 
  266000    42477    99408.809    122.91688        16400 
  267000    42477    99690.809    102.32949        16400 
  268000    42477    99345.952    132.35921        16400 
  269000    42477    99177.503    145.25275        16400 
  270000    42477    99063.216    121.86558        16400 
  271000    42477    99176.974    109.56239        16400 
  272000    42477    99421.274    106.95808        16400 
  273000    42477     99450.01    109.19845        16400 
  274000    42477    99549.298    103.05158        16400 
  275000    42477    99809.329    103.48444        16400 
  276000    42477    100018.42    118.69857        16400 
  277000    42477    100027.12    109.36476        16400 
  278000    42477    99679.833    110.61906        16400 
  279000    42477    99598.546    113.12261        16400 
  280000    42477    99658.606    107.46858        16400 
  281000    42477     99897.29     102.5116        16400 
  282000    42477    100030.78    110.79102        16400 
  283000    42477    99832.996     128.6115        16400 
  284000    42477    99555.682    129.84812        16400 
  285000    42477     99192.22    127.56355        16400 
  286000    42477    99201.894    123.26856        16400 
  287000    42477    99431.962    106.54097        16400 
  288000    42477    99469.774     112.0061        16400 
  289000    42477    99178.646    118.83601        16400 
  290000    42477    99101.267    123.24042        16400 
  291000    42477    99147.003    131.75941        16400 
  292000    42477    99173.293    132.74534        16400 
  293000    42477    99199.159    137.90992        16400 
  294000    42477    99086.235    113.72793        16400 
  295000    42477     99110.12    107.30154        16400 
  296000    42477    98826.757    126.10938        16400 
  297000    42477    98787.151    108.55705        16400 
  298000    42477    98530.911    129.39469        16400 
  299000    42477    98049.097    133.07198        16400 
  300000    42477    98087.025    108.48473        16400 
  301000    42477    97971.202    117.48564        16400 
  302000    42477    97882.943    99.268949        16400 
  303000    42477    97566.407    129.42104        16400 
  304000    42477     97413.84    115.27693        16400 
  305000    42477    97088.174    115.46612        16400 
  306000    42477    97002.868    122.29828        16400 
  307000    42477    96870.873    120.23391        16400 
  308000    42477    96701.693    116.72182        16400 
  309000    42477    96330.485     142.8984        16400 
  310000    42477    95985.396      139.153        16400 
  311000    42477    95862.171    111.60311        16400 
  312000    42477    95240.983    164.43295        16400 
  313000    42477      95075.5    132.80093        16400 
  314000    42477    94314.746    136.87455        16400 
  315000    42477    93558.371    138.60262        16400 
  316000    42477    93503.006    121.90696        16400 
  317000    42477    93356.887     125.1617        16400 
  318000    42477    93219.161    110.60959        16400 
  319000    42477    92856.567    118.47507        16400 
  320000    42477    92717.677      118.198        16400 
  321000    42477    91892.935    108.93028        16400 
  322000    42477    91108.785    139.53915        16400 
  323000    42477    90655.821    141.59124        16400 
  324000    42477    90302.234    137.45608        16400 
  325000    42477    89755.747    134.85093        16400 
  326000    42477    89385.734    145.26705        16400 
  327000    42477    89053.162    125.56277        16400 
  328000    42477    88464.876    154.65773        16400 
  329000    42477    88015.596    168.01528        16400 
  330000    42477    87399.743    123.03757        16400 
  331000    42477    86380.534     133.7848        16400 
  332000    42477    85282.511    142.40263        16400 
  333000    42477    84510.694    129.67321        16400 
  334000    42477    83965.631    136.89949        16400 
  335000    42477    83619.213    126.33247        16400 
  336000    42477    83423.388    114.37397        16400 
  337000    42477    82930.354    113.78466        16400 
  338000    42477    82190.771    137.58233        16400 
  339000    42477    81117.084    162.84788        16400 
  340000    42477    80549.442    158.76637        16400 
  341000    42477    79799.539    143.88433        16400 
  342000    42477    79260.755    149.76951        16400 
  343000    42477    78566.389    149.44131        16400 
  344000    42477    78014.017    132.53202        16400 
  345000    42477    77512.474    123.62609        16400 
  346000    42477    76268.174    144.20845        16400 
  347000    42477    75050.455    149.55041        16400 
  348000    42477    74260.391    142.08406        16400 
  349000    42477    73355.569    158.15535        16400 
  350000    42477    72913.792    114.75295        16400 
  351000    42477    71886.975    142.00844        16400 
  352000    42477    70698.508    158.79431        16400 
  353000    42477    69590.225    131.67451        16400 
  354000    42477    68657.478    134.99845        16400 
  355000    42477     68460.92    110.49923        16400 
  356000    42477     67660.94    129.28797        16400 
  357000    42477    67005.833    121.19981        16400 
  358000    42477     66447.78    125.65147        16400 
  359000    42477    65712.896    141.41727        16400 
  360000    42477    65164.137    101.58703        16400 
  361000    42477    64316.933    103.57698        16400 
  362000    42477    63457.983    122.29563        16400 
  363000    42477    62792.094    116.30414        16400 
  364000    42477    62384.514    124.11672        16400 
  365000    42477    62099.211    119.05604        16400 
  366000    42477    61686.708    115.11771        16400 
  367000    42477    61494.639    104.89881        16400 
  368000    42477    60833.255    107.10192        16400 
  369000    42477    59797.439    123.54067        16400 
  370000    42477    58838.129    114.72039        16400 
  371000    42477    58262.011    115.19724        16400 
  372000    42477    57588.935    125.54121        16400 
  373000    42477    56150.959    116.11949        16400 
  374000    42477    55657.628     110.0814        16400 
  375000    42477    55461.673      104.503        16400 
  376000    42477    55655.032    71.143411        16400 
  377000    42477    54836.405    98.361764        16400 
  378000    42477    53906.078    112.27431        16400 
  379000    42477    53225.092    110.67117        16400 
  380000    42477    53117.645    111.25268        16400 
  381000    42477    52294.268      106.146        16400 
  382000    42477     51681.81    117.44905        16400 
  383000    42477    51000.915    84.451078        16400 
  384000    42477    50216.314    96.173658        16400 
  385000    42477    49510.113    104.93288        16400 
  386000    42477    48784.604    95.146405        16400 
  387000    42477    48146.165    105.18852        16400 
  388000    42477    47713.363    83.236888        16400 
  389000    42477    47441.243    73.099667        16400 
  390000    42477    47049.577    79.249367        16400 
  391000    42477    46314.439    97.652542        16400 
  392000    42477    45581.711    93.059581        16400 
  393000    42477    44532.149    100.54582        16400 
  394000    42477    43292.627    102.51612        16400 
  395000    42477    41978.548    120.30361        16400 
  396000    42477    41423.641    108.52576        16400 
  397000    42477    40739.816    123.99197        16400 
  398000    42477    40152.437    94.757045        16400 
  399000    42477     39630.03    83.490806        16400 
  400000    42477    38841.777    88.437961        16400 
  401000    42477    38314.519    101.92244        16400 
  402000    42477    38111.421    80.670038        16400 
  403000    42477    37554.575    72.434594        16400 
  404000    42477    36811.035    87.461795        16400 
  405000    42477     35909.48    81.981414        16400 
  406000    42477     35193.39    73.346974        16400 
  407000    42477    34450.146     78.08248        16400 
  408000    42477    33778.028    77.992416        16400 
  409000    42477    33127.324    86.356429        16400 
  410000    42477    32559.845     89.48703        16400 
  411000    42477    32175.361    83.547478        16400 
  412000    42477    31696.527    85.951917        16400 
  413000    42477    30861.494    62.803007        16400 
  414000    42477    29787.126    74.889786        16400 
  415000    42477    28504.113    82.079262        16400 
  416000    42477    27575.494    91.864223        16400 
  417000    42477    26982.364    82.514432        16400 
  418000    42477    26324.396    70.421559        16400 
  419000    42477    25662.295    70.674605        16400 
  420000    42477    25312.395    84.879503        16400 
  421000    42477    25024.384    68.790265        16400 
  422000    42477    24400.612    54.304352        16400 
  423000    42477    23655.398     73.81276        16400 
  424000    42477    23001.168     78.41491        16400 
  425000    42477    22288.915    103.54705        16400 
  426000    42477    21751.436    67.039946        16400 
  427000    42477    21266.038    53.596274        16400 
  428000    42477    20583.415    46.635021        16400 
  429000    42477    19981.152      43.4043        16400 
  430000    42477    19329.013    62.031643        16400 
  431000    42477    18665.678    63.957694        16400 
  432000    42477    18037.345    69.579039        16400 
  433000    42477    17534.743      64.8757        16400 
  434000    42477    17095.978    56.858886        16400 
  435000    42477    16270.014    54.180019        16400 
  436000    42477    15557.826    59.910295        16400 
  437000    42477    14845.727    91.226831        16400 
  438000    42477    14276.918    52.346999        16400 
  439000    42477    13759.672    55.826483        16400 
  440000    42477    13248.907    66.173328        16400 
  441000    42477    12982.376    65.855955        16400 
  442000    42477    12825.781    50.002614        16400 
  443000    42477    12758.885    42.971403        16400 
  444000    42477    12369.248    41.136596        16400 
  445000    42477    11773.253    47.895094        16400 
  446000    42477     10983.75    46.015535        16400 
  447000    42477    10541.729    72.762992        16400 
  448000    42477    10429.826    44.632107        16400 
  449000    42477    10275.171    38.064194        16400 
  450000    42477    9949.3936     53.75328        16400 
  451000    42477    9275.3651    51.532979        16400 
  452000    42477    8666.6258    51.517913        16400 
  453000    42477    8160.8307    38.486704        16400 
  454000    42477    7703.1621    40.861087        16400 
  455000    42477    7084.9622    47.383308        16400 
  456000    42477    6650.4286    94.309636        16400 
  457000    42477    6221.4444    36.012802        16400 
  458000    42477    5797.1312     32.43128        16400 
  459000    42477    5175.3784    37.315196        16400 
  460000    42477    4589.6884     39.25755        16400 
  461000    42477    4372.6422    31.299784        16400 
  462000    42477    3706.1888    19.906347        16400 
  463000    42477    2052.5855     12.26839        16400 
  464000    42477    497.01157    12.613418        16400 
  465000    42477     681.8562    9.7231276        16400 
  466000    42477    2314.6599    9.6760751        16400 
  467000    42477    3662.8268    11.072755        16400 
  468000    42477    3844.2898    10.973978        16400 
  469000    42477    3569.8127    10.595049        16400 
  470000    42477    3295.3444    10.538567        16400 
  471000    42477    3038.2525    9.5906615        16400 
  472000    42477    2779.9216    10.219117        16400 
  473000    42477    2526.9581    8.5361827        16400 
  474000    42477    2285.5468    9.8008166        16400 
  475000    42477    2058.6442    9.5993135        16400 
  476000    42477     1842.748     8.855259        16400 
  477000    42477    1638.2365    8.3058055        16400 
  478000    42477    1442.1118    6.7432061        16400 
  479000    42477    1254.5403    7.4269669        16400 
  480000    42477    1087.2928    7.6174284        16400 
  481000    42477    930.18168    5.6120331        16400 
  482000    42477    788.23667    5.3453013        16400 
  483000    42477    660.67681    3.8997403        16400 
  484000    42477    544.18516    3.1100258        16400 
  485000    42477    442.37643    2.6398118        16400 
  486000    42477     355.2338    2.3655605        16400 
  487000    42477    285.50463    2.1724093        16400 
  488000    42477    231.60244    1.9759032        16400 
  489000    42477    192.11959    1.9004642        16400 
  490000    42477    162.87475    1.7276057        16400 
  491000    42477    144.44343    1.9385264        16400 
  492000    42477    135.47017    1.5082507        16400 
  493000    42477    135.93277    1.4030524        16400 
  494000    42477    146.61255    1.1843479        16400 
  495000    42477    163.46001     1.026189        16400 
  496000    42477     182.9671   0.96252251        16400 
  497000    42477    202.19014    1.0388023        16400 
  498000    42477    220.56934    1.1786088        16400 
  499000    42477    240.58845    1.4603749        16400 
  500000    42477    257.72741    1.5209576        16400 
  501000    42477    266.90971    1.9335385        16400 
  502000    42477    274.06753    2.1249887        16400 
  503000    42477    285.89731    2.0863434        16400 
  504000    42477    298.87289    2.4060349        16400 
  505000    42477    311.57921    2.6595103        16400 
  506000    42477    320.34991    2.8775792        16400 
  507000    42477    316.66217    2.8902468        16400 
  508000    42477    307.64588    4.2056723        16400 
  509000    42477    299.22118    3.1800128        16400 
  510000    42477    292.40631    2.8654876        16400 
  511000    42477    285.71145    2.3208082        16400 
  512000    42477    278.43852    2.4170701        16400 
  513000    42477    272.85222    4.6321943        16400 
  514000    42477    260.37286    6.0488507        16400 
  515000    42477    232.75956    3.3230443        16400 
  516000    42477    201.67335    1.9127303        16400 
  517000    42477    170.65698    1.4310289        16400 
  518000    42477    144.09791    1.2525463        16400 
  519000    42477    123.54955    1.1141159        16400 
  520000    42477    105.55449   0.89505844        16400 
  521000    42477    89.160771   0.77958429        16400 
  522000    42477    75.452708   0.72791932        16400 
  523000    42477    63.622315   0.62559001        16400 
  524000    42477    53.062479   0.56497203        16400 
  525000    42477    43.884654   0.55408997        16400 
  526000    42477    37.027497   0.57244883        16400 
  527000    42477     31.47583    0.5458281        16400 
  528000    42477    26.602617   0.53772297        16400 
  529000    42477    22.271729   0.53264956        16400 
  530000    42477    18.958741   0.48656352        16400 
  531000    42477     16.65439   0.48307358        16400 
  532000    42477    15.070473   0.43675359        16400 
  533000    42477    14.001203   0.37769721        16400 
  534000    42477    13.430426   0.33074113        16400 
  535000    42477    13.768621   0.28538948        16400 
  536000    42477    15.266628   0.24245535        16400 
  537000    42477    17.079656   0.21405213        16400 
  538000    42477    18.595158   0.21937297        16400 
  539000    42477    19.840378   0.21433781        16400 
  540000    42477      20.5968   0.19970531        16400 
  541000    42477    20.702417   0.19468554        16400 
  542000    42477    20.400116   0.19236381        16400 
  543000    42477    19.837502   0.19585959        16400 
  544000    42477    18.843191   0.19069674        16400 
  545000    42477    17.526942   0.19544021        16400 
  546000    42477    16.217369   0.19817995        16400 
  547000    42477    15.103059   0.20594128        16400 
  548000    42477    14.253346   0.22085193        16400 
  549000    42477    13.773285   0.23165543        16400 
  550000    42477      13.6272   0.26235242        16400 
  551000    42477    13.806376   0.27647251        16400 
  552000    42477    14.187169   0.30140202        16400 
  553000    42477    15.026602   0.32491501        16400 
  554000    42477    16.146197   0.36109802        16400 
  555000    42477    17.642358   0.46495786        16400 
  556000    42477    18.751569   0.49017302        16400 
  557000    42477    19.282293   0.45019042        16400 
  558000    42477    19.311372   0.54914697        16400 
  559000    42477    19.217167   0.53774482        16400 
  560000    42477    18.399876   0.47765484        16400 
  561000    42477    16.831801    0.3075861        16400 
  562000    42477    14.839291   0.26108045        16400 
  563000    42477    12.014874   0.20606029        16400 
  564000    42477    8.6751759   0.18221697        16400 
  565000    42477    5.6808421   0.14803447        16400 
  566000    42477    3.4143917   0.13096298        16400 
  567000    42477    1.9380576   0.11159757        16400 
  568000    42477     1.345693     0.112805        16400 
  569000    42477    1.6094254   0.11858002        16400 
  570000    42477     2.470388   0.12410461        16400 
  571000    42477    3.5343649   0.11806887        16400 
  572000    42477    4.5296613   0.10327013        16400 
  573000    42477     5.285862  0.097147402        16400 
  574000    42477     5.663166  0.096805887        16400 
  575000    42477    5.6804934  0.099795616        16400 
  576000    42477    5.4404294   0.10136915        16400 
  577000    42477    5.0412499   0.10335661        16400 
  578000    42477    4.6137676   0.10184563        16400 
  579000    42477    4.2545931  0.096430286        16400 
  580000    42477    4.0107376  0.090652751        16400 
  581000    42477    3.8905009   0.08455932        16400 
  582000    42477    3.8348314  0.081601397        16400 
  583000    42477    3.7551341  0.081397901        16400 
  584000    42477    3.5264551  0.083719197        16400 
  585000    42477    3.0741914  0.085903357        16400 
  586000    42477    2.4753682  0.085946048        16400 
  587000    42477     1.817618  0.086323873        16400 
  588000    42477    1.2251951  0.083684208        16400 
  589000    42477   0.88536002  0.080147525        16400 
  590000    42477    0.9417269  0.079004657        16400 
  591000    42477     1.377098  0.079966555        16400 
  592000    42477    1.9974735  0.080197948        16400 
  593000    42477    2.4715596   0.07770094        16400 
  594000    42477    2.8018057   0.07519314        16400 
  595000    42477    2.9377612  0.076013956        16400 
  596000    42477    2.9433783  0.071575672        16400 
  597000    42477    2.9479886  0.068229954        16400 
  598000    42477    3.0048596  0.067624053        16400 
  599000    42477    3.0907013  0.065389839        16400 
  600000    42477    3.2441318  0.064473186        16400 
  601000    42477    3.3825541  0.064379365        16400 
  602000    42477    3.4325871  0.064036013        16400 
  603000    42477    3.3061925  0.062978771        16400 
  604000    42477    2.9704049  0.060501547        16400 
  605000    42477    2.4887645  0.059674965        16400 
  606000    42477    1.9359207  0.059697547        16400 
  607000    42477    1.3700547  0.059788978        16400 
  608000    42477   0.88465732  0.060141402        16400 
  609000    42477   0.56916674  0.059963369        16400 
  610000    42477   0.46994151  0.059515055        16400 
  611000    42477   0.57525975  0.058807189        16400 
  612000    42477   0.81740095  0.059032238        16400 
  613000    42477    1.0989417  0.059881109        16400 
  614000    42477    1.3313051  0.060681122        16400 
  615000    42477    1.4780742  0.061156189        16400 
  616000    42477    1.5552571  0.061114018        16400 
  617000    42477    1.6150257  0.060706584        16400 
  618000    42477    1.6893709  0.052789144        16400 
  619000    42477    1.8510965  0.051757732        16400 
  620000    42477    2.1018513  0.051094419        16400 
  621000    42477     2.409837  0.051041803        16400 
  622000    42477    2.6926998  0.051111346        16400 
  623000    42477    2.8611443  0.051831561        16400 
  624000    42477    2.8419455  0.052166077        16400 
  625000    42477    2.6122612  0.051681754        16400 
  626000    42477    2.1982766  0.051187086        16400 
  627000    42477    1.6908446   0.05033242        16400 
  628000    42477    1.2044081  0.049296938        16400 
  629000    42477   0.84260458  0.048871458        16400 
  630000    42477   0.66217674  0.048766583        16400 
  631000    42477   0.62192975  0.034427526        16400 
  632000    42477   0.65392652 0.0069574633        16400 
  633000    42477   0.76408945 0.0058824567        16400 
  634000    42477   0.83255849 0.0047636892        16400 
  635000    42477   0.83815496 0.0040571345        16400 
  636000    42477   0.80777115 0.0027609305        16400 
  637000    42477   0.78720058 0.0022372049        16400 
  638000    42477   0.84378686 0.0020375137        16400 
  639000    42477    1.0206252 0.0019943226        16400 
  640000    42477    1.3130757 0.0019391513        16400 
  641000    42477    1.6735211 0.0024558535        16400 
  642000    42477    2.0242864 0.0030244705        16400 
  643000    42477    2.2738064 0.0029499844        16400 
  644000    42477    2.3541589 0.0028605648        16400 
  645000    42477    2.2434629 0.0030172019        16400 
  646000    42477    1.9705813 0.0026840157        16400 
  647000    42477    1.6043827 0.0023303676        16400 
  648000    42477    1.2328206 0.0019965096        16400 
  649000    42477   0.94140388  0.001973966        16400 
  650000    42477   0.77432481 0.0020000418        16400 
  651000    42477   0.71849996 0.0022209139        16400 
  652000    42477   0.71791592 0.0025021653        16400 
  653000    42477   0.72010365 0.0025593456        16400 
  654000    42477   0.68381086 0.0026468236        16400 
  655000    42477   0.59963166 0.0026447967        16400 
  656000    42477   0.49559759  0.002697388        16400 
  657000    42477   0.42150227 0.0027844604        16400 
  658000    42477   0.42228777 0.0023374616        16400 
  659000    42477   0.53010357 0.0019093239        16400 
  660000    42477    0.7488868 0.0016951035        16400 
  661000    42477    1.0445831 0.0014376814        16400 
  662000    42477    1.3559517 0.0015663919        16400 
  663000    42477    1.6122974 0.0017427103        16400 
  664000    42477    1.7623885 0.0019783041        16400 
  665000    42477    1.7825705  0.001806838        16400 
  666000    42477    1.6872389 0.0017704655        16400 
  667000    42477    1.5207834 0.0018856223        16400 
  668000    42477    1.3356435 0.0020009476        16400 
  669000    42477    1.1752575 0.0017870726        16400 
  670000    42477    1.0610778 0.0015260034        16400 
  671000    42477   0.97510173 0.0015592786        16400 
  672000    42477   0.88729966 0.0015149874        16400 
  673000    42477   0.77193822 0.0013216735        16400 
  674000    42477   0.61943109 0.0014591375        16400 
  675000    42477   0.44830071 0.0014233765        16400 
  676000    42477   0.29089504 0.0012148047        16400 
  677000    42477   0.18860783   0.00110784        16400 
  678000    42477   0.17841142 0.00092872393        16400 
  679000    42477   0.27878164 0.00078744352        16400 
  680000    42477   0.47675031 0.00090848764        16400 
  681000    42477    0.7293595 0.0010762826        16400 
  682000    42477   0.97992332 0.0013031662        16400 
  683000    42477    1.1741992 0.0012680493        16400 
  684000    42477    1.2830837 0.0012330432        16400 
  685000    42477      1.30587 0.0010949898        16400 
  686000    42477    1.2676369 0.00099032786        16400 
  687000    42477    1.2053993 0.00088797085        16400 
  688000    42477    1.1519602 0.0009465025        16400 
  689000    42477    1.1218274 0.00086268753        16400 
  690000    42477    1.1059624 0.00094077885        16400 
  691000    42477    1.0769587 0.00096519209        16400 
  692000    42477    1.0035559 0.0010844002        16400 
  693000    42477   0.86849742 0.0010491933        16400 
  694000    42477   0.67750072 0.0010525727        16400 
  695000    42477   0.46113412 0.00088688089        16400 
  696000    42477   0.26407612 0.00079900883        16400 
  697000    42477   0.12977572 0.00060614649        16400 
  698000    42477  0.088444509 0.00053841299        16400 
  699000    42477   0.14619914 0.00049988975        16400 
  700000    42477   0.28430717 0.00055571248        16400 
  701000    42477   0.46419879 0.00061799918        16400 
  702000    42477   0.64042429 0.00066892902        16400 
  703000    42477   0.77747324 0.00066512398        16400 
  704000    42477   0.85964607 0.00064233594        16400 
  705000    42477   0.89379152 0.00065034878        16400 
  706000    42477   0.90526069 0.00062641602        16400 
  707000    42477   0.92211296 0.00059366459        16400 
  708000    42477   0.96424778 0.00064906873        16400 
  709000    42477     1.030793 0.00071836227        16400 
  710000    42477    1.0954193 0.00087539507        16400 
  711000    42477    1.1205333 0.0009015473        16400 
  712000    42477    1.0749776 0.00097437617        16400 
  713000    42477   0.94657597 0.00091604897        16400 
  714000    42477   0.74854604 0.00091267885        16400 
  715000    42477   0.51778393 0.0007446269        16400 
  716000    42477   0.30402464 0.00063523424        16400 
  717000    42477   0.15165143 0.00054517905        16400 
  718000    42477  0.087671405 0.00044616564        16400 
  719000    42477   0.11458139 0.00044604158        16400 
  720000    42477   0.21057381 0.00047715956        16400 
  721000    42477   0.33782286 0.00047114636        16400 
  722000    42477   0.45722804 0.00052836617        16400 
  723000    42477   0.54340772 0.00055323027        16400 
  724000    42477    0.5898109  0.000494172        16400 
  725000    42477   0.60934558 0.00050209426        16400 
  726000    42477   0.62814226 0.00051165764        16400 
  727000    42477   0.67210978 0.0005082915        16400 
  728000    42477   0.75385826 0.00050794187        16400 
  729000    42477   0.86201542 0.00056812336        16400 
  730000    42477   0.96516913 0.00059362343        16400 
  731000    42477    1.0256252 0.00066443034        16400 
  732000    42477     1.014572 0.00062608082        16400 
  733000    42477   0.92276429 0.00063228179        16400 
  734000    42477   0.76510631 0.0005704531        16400 
  735000    42477   0.57519794 0.0005302036        16400 
  736000    42477   0.39340729 0.00046922115        16400 
  737000    42477    0.2544828 0.00044025293        16400 
  738000    42477   0.17844132 0.00040269065        16400 
  739000    42477   0.16554212 0.00037453724        16400 
  740000    42477   0.19837781 0.00035385658        16400 
  741000    42477   0.25036061 0.00033503638        16400 
  742000    42477    0.2971205 0.00035339871        16400 
  743000    42477    0.3275024 0.00034334952        16400 
  744000    42477   0.34556345 0.00030802403        16400 
  745000    42477   0.36767677 0.00032952997        16400 
  746000    42477   0.41343492 0.00029599437        16400 
  747000    42477   0.49588343 0.00031917382        16400 
  748000    42477   0.61266093 0.0003583542        16400 
  749000    42477   0.74351657 0.00040867166        16400 
  750000    42477   0.85665222 0.00045739703        16400 
  751000    42477   0.92027934 0.00052677554        16400 
  752000    42477   0.91599113 0.00053644329        16400 
  753000    42477   0.84440242 0.00051855166        16400 
  754000    42477   0.72324273 0.00049346517        16400 
  755000    42477   0.58096919 0.00044456009        16400 
  756000    42477   0.44742919 0.00042160653        16400 
  757000    42477   0.34523065 0.00041860037        16400 
  758000    42477   0.28338528 0.00045804043        16400 
  759000    42477   0.25610543 0.00040720992        16400 
  760000    42477   0.24775332 0.00034219286        16400 
  761000    42477   0.24095456 0.00033940997        16400 
  762000    42477   0.22614339 0.00037350292        16400 
  763000    42477   0.20524017 0.00032807946        16400 
  764000    42477   0.19056897 0.00026527526        16400 
  765000    42477   0.20072368 0.00027606519        16400 
  766000    42477   0.25104616 0.00025288269        16400 
  767000    42477   0.34525933 0.00025908972        16400 
  768000    42477   0.47176074 0.00031165831        16400 
  769000    42477   0.60565891 0.00034119517        16400 
  770000    42477   0.71651269 0.00044264795        16400 
  771000    42477   0.77960598 0.0004867431        16400 
  772000    42477   0.78480924 0.00052020404        16400 
  773000    42477   0.73781695 0.00051870575        16400 
  774000    42477   0.65669612 0.00043250427        16400 
  775000    42477   0.56505674 0.00038354757        16400 
  776000    42477   0.48309449 0.00034389882        16400 
  777000    42477   0.42132782 0.0003152615        16400 
  778000    42477   0.37889061 0.0003269583        16400 
  779000    42477    0.3449279 0.00031375878        16400 
  780000    42477   0.30534354 0.00035878735        16400 
  781000    42477   0.25170852 0.00032894489        16400 
  782000    42477   0.18615293 0.00028483097        16400 
  783000    42477   0.12171871 0.0002284996        16400 
  784000    42477   0.07899226 0.00017954363        16400 
  785000    42477  0.078275818 0.00016637136        16400 
  786000    42477   0.13053189 0.00017505169        16400 
  787000    42477   0.23207486 0.00019552793        16400 
  788000    42477   0.36390929 0.00022888601        16400 
  789000    42477   0.49693982 0.00029357796        16400 
  790000    42477   0.60208726 0.00032399103        16400 
  791000    42477   0.66039126 0.00037008422        16400 
  792000    42477   0.66756445 0.00036004855        16400 
  793000    42477   0.63344455 0.00035846695        16400 
  794000    42477   0.57754578 0.00032615593        16400 
  795000    42477   0.52085883 0.00030409173        16400 
  796000    42477   0.47801288 0.00029596412        16400 
  797000    42477   0.45260442 0.0003022817        16400 
  798000    42477    0.4363481 0.00032375871        16400 
  799000    42477   0.41375685 0.00034281399        16400 
  800000    42477   0.37009103 0.00036149063        16400 
  801000    42477   0.29914709 0.00037668314        16400 
  802000    42477   0.20880104 0.00034055096        16400 
  803000    42477   0.11795048 0.00024529725        16400 
  804000    42477  0.050771365 0.00020035549        16400 
  805000    42477  0.028626952 0.00015812137        16400 
  806000    42477  0.061701377 0.00014237361        16400 
  807000    42477   0.14434983 0.00015704878        16400 
  808000    42477   0.25653033 0.00018631325        16400 
  809000    42477   0.37107308 0.00023567129        16400 
  810000    42477   0.46346434 0.00025877262        16400 
  811000    42477   0.51979605 0.00026991695        16400 
  812000    42477    0.5388116 0.00029145481        16400 
  813000    42477   0.53045078 0.00028794953        16400 
  814000    42477   0.51026134 0.00029453383        16400 
  815000    42477   0.49211103 0.00027885744        16400 
  816000    42477   0.48265863 0.00027539969        16400 
  817000    42477   0.47835976 0.00027787197        16400 
  818000    42477   0.46795739 0.00026936154        16400 
  819000    42477   0.43842739 0.00026942342        16400 
  820000    42477   0.38128801 0.00027072632        16400 
  821000    42477   0.29802465 0.00027860785        16400 
  822000    42477   0.20144771 0.00023709513        16400 
  823000    42477   0.11089487 0.00019523609        16400 
  824000    42477  0.046845893 0.00016831469        16400 
  825000    42477  0.024267851 0.00013469962        16400 
  826000    42477  0.047565838 0.00013347703        16400 
  827000    42477    0.1086935 0.0001527405        16400 
  828000    42477    0.1900215 0.00017251625        16400 
  829000    42477   0.27113097 0.00020263296        16400 
  830000    42477   0.33633387 0.00024474908        16400 
  831000    42477   0.37954215 0.0002574605        16400 
  832000    42477   0.40381365 0.00025215933        16400 
  833000    42477   0.41766555 0.00024613698        16400 
  834000    42477   0.42996896 0.00022441048        16400 
  835000    42477   0.44571121 0.00020895745        16400 
  836000    42477   0.46380734 0.00023302346        16400 
  837000    42477   0.47688255 0.00026338948        16400 
  838000    42477    0.4739412 0.00029735412        16400 
  839000    42477   0.44535468 0.00029245868        16400 
  840000    42477   0.38771987  0.000289765        16400 
  841000    42477   0.30727965 0.00025258978        16400 
  842000    42477   0.21789416 0.00022536893        16400 
  843000    42477   0.13717551 0.00019799304        16400 
  844000    42477  0.080633166 0.00018730489        16400 
  845000    42477  0.056794893 0.00016920103        16400 
  846000    42477  0.065056928 0.00014704831        16400 
  847000    42477  0.096896439 0.00015247633        16400 
  848000    42477   0.13965746 0.00015833526        16400 
  849000    42477   0.18197916 0.00016031289        16400 
  850000    42477    0.2180617 0.0001619793        16400 
  851000    42477   0.24927108 0.00016956411        16400 
  852000    42477   0.28079753 0.00015511862        16400 
  853000    42477   0.31827139 0.00017128577        16400 
  854000    42477   0.36363363 0.00019200174        16400 
  855000    42477   0.41259921 0.00022921741        16400 
  856000    42477   0.45537108 0.00025559576        16400 
  857000    42477   0.47938889 0.00027887971        16400 
  858000    42477   0.47420681 0.00027105829        16400 
  859000    42477   0.43577306 0.00025480146        16400 
  860000    42477    0.3692015 0.00023478578        16400 
  861000    42477   0.28677993 0.00021008382        16400 
  862000    42477   0.20502052 0.00017528489        16400 
  863000    42477   0.13963405 0.0001522839        16400 
  864000    42477   0.10056443 0.00013372896        16400 
  865000    42477  0.088857676 0.00012983844        16400 
  86600