ITEM: TIMESTEP
0
ITEM: NUMBER OF ATOMS
15
ITEM: BOX BOUNDS ff fm pp
-4.1000000000000000e+01 4.1000000000000000e+01
0.0000000000000000e+00 2.0000000000000000e+02
-2.5000000000000000e-01 2.5000000000000000e-01
ITEM: ATOMS id type x y 
42509 5 -0.5 154.249 
42511 5 -1 155.115 
42514 5 -1.5 155.981 
42515 5 -0.5 155.981 
42518 5 -2 156.847 
42519 5 -1 156.847 
42508 5 0 153.383 
42510 5 0.5 154.249 
42512 5 0 155.115 
42513 5 1 155.115 
42516 5 0.5 155.981 
42517 5 1.5 155.981 
42520 5 0 156.847 
42521 5 1 156.847 
42522 5 2 156.847 
ITEM: TIMESTEP
10000
ITEM: NUMBER OF ATOMS
15
ITEM: BOX BOUNDS ff fm pp
-4.1000000000000000e+01 4.1000000000000000e+01
0.0000000000000000e+00 2.0000000000000000e+02
-2.5000000000000000e-01 2.5000000000000000e-01
ITEM: ATOMS id type x y 
42508 5 -1.73672e-17 153.263 
42509 5 -0.5 154.129 
42511 5 -1 154.995 
42512 5 -1.64697e-17 154.995 
42514 5 -1.5 155.861 
42515 5 -0.5 155.861 
42518 5 -2 156.727 
42519 5 -1 156.727 
42520 5 -1.55722e-17 156.727 
42510 5 0.5 154.129 
42513 5 1 154.995 
42516 5 0.5 155.861 
42517 5 1.5 155.861 
42521 5 1 156.727 
42522 5 2 156.727 
ITEM: TIMESTEP
20000
ITEM: NUMBER OF ATOMS
15
ITEM: BOX BOUNDS ff fm pp
-4.1000000000000000e+01 4.1000000000000000e+01
0.0000000000000000e+00 2.0000000000000000e+02
-2.5000000000000000e-01 2.5000000000000000e-01
ITEM: ATOMS id type x y 
42508 5 -7.12671e-17 152.896 
42509 5 -0.5 153.762 
42511 5 -1 154.628 
42512 5 -6.54137e-17 154.628 
42514 5 -1.5 155.494 
42515 5 -0.5 155.494 
42518 5 -2 156.36 
42519 5 -1 156.36 
42520 5 -5.95602e-17 156.36 
42510 5 0.5 153.762 
42513 5 1 154.628 
42516 5 0.5 155.494 
42517 5 1.5 155.494 
42521 5 1 156.36 
42522 5 2 156.36 
ITEM: TIMESTEP
30000
ITEM: NUMBER OF ATOMS
15
ITEM: BOX BOUNDS ff fm pp
-4.1000000000000000e+01 4.1000000000000000e+01
0.0000000000000000e+00 2.0000000000000000e+02
-2.5000000000000000e-01 2.5000000000000000e-01
ITEM: ATOMS id type x y 
42508 5 -1.84942e-16 152.279 
42509 5 -0.5 153.145 
42511 5 -1 154.011 
42512 5 -1.52264e-16 154.011 
42514 5 -1.5 154.877 
42515 5 -0.5 154.877 
42518 5 -2 155.743 
42519 5 -1 155.743 
42520 5 -1.19586e-16 155.743 
42510 5 0.5 153.145 
42513 5 1 154.011 
42516 5 0.5 154.877 
42517 5 1.5 154.877 
42521 5 1 155.743 
42522 5 2 155.743 
ITEM: TIMESTEP
40000
ITEM: NUMBER OF ATOMS
15
ITEM: BOX BOUNDS ff fm pp
-4.1000000000000000e+01 4.1000000000000000e+01
0.0000000000000000e+00 2.0000000000000000e+02
-2.5000000000000000e-01 2.5000000000000000e-01
ITEM: ATOMS id type x y 
42508 5 -3.30667e-16 151.412 
42509 5 -0.5 152.278 
42511 5 -1 153.144 
42512 5 -2.7009e-16 153.144 
42514 5 -1.5 154.01 
42515 5 -0.5 154.01 
42518 5 -2 154.876 
42519 5 -1 154.876 
42520 5 -2.09513e-16 154.876 
42510 5 0.5 152.278 
42513 5 1 153.144 
42516 5 0.5 154.01 
42517 5 1.5 154.01 
42521 5 1 154.876 
42522 5 2 154.876 
ITEM: TIMESTEP
50000
ITEM: NUMBER OF ATOMS
15
ITEM: BOX BOUNDS ff fm pp
-4.1000000000000000e+01 4.1000000000000000e+01
0.0000000000000000e+00 2.0000000000000000e+02
-2.5000000000000000e-01 2.5000000000000000e-01
ITEM: ATOMS id type x y 
42508 5 -5.11263e-16 150.295 
42509 5 -0.5 151.161 
42511 5 -1 152.027 
42512 5 -4.19596e-16 152.027 
42514 5 -1.5 152.893 
42515 5 -0.5 152.893 
42518 5 -2 153.759 
42519 5 -1 153.759 
42520 5 -3.27929e-16 153.759 
42510 5 0.5 151.161 
42513 5 1 152.027 
42516 5 0.5 152.893 
42517 5 1.5 152.893 
42521 5 1 153.759 
42522 5 2 153.759 
ITEM: TIMESTEP
60000
ITEM: NUMBER OF ATOMS
15
ITEM: BOX BOUNDS ff fm pp
-4.1000000000000000e+01 4.1000000000000000e+01
0.0000000000000000e+00 2.0000000000000000e+02
-2.5000000000000000e-01 2.5000000000000000e-01
ITEM: ATOMS id type x y 
42508 5 -7.21258e-16 148.928 
42509 5 -0.5 149.794 
42511 5 -1 150.66 
42512 5 -5.99414e-16 150.66 
42514 5 -1.5 151.526 
42515 5 -0.5 151.526 
42518 5 -2 152.392 
42519 5 -1 152.392 
42520 5 -4.7757e-16 152.392 
42510 5 0.5 149.794 
42513 5 1 150.66 
42516 5 0.5 151.526 
42517 5 1.5 151.526 
42521 5 1 152.392 
42522 5 2 152.392 
ITEM: TIMESTEP
70000
ITEM: NUMBER OF ATOMS
15
ITEM: BOX BOUNDS ff fm pp
-4.1000000000000000e+01 4.1000000000000000e+01
0.0000000000000000e+00 2.0000000000000000e+02
-2.5000000000000000e-01 2.5000000000000000e-01
ITEM: ATOMS id type x y 
42508 5 -9.28424e-16 147.31 
42509 5 -0.5 148.176 
42511 5 -1 149.042 
42512 5 -8.01486e-16 149.042 
42514 5 -1.5 149.908 
42515 5 -0.5 149.908 
42518 5 -2 150.774 
42519 5 -1 150.774 
42520 5 -6.74548e-16 150.774 
42510 5 0.5 148.176 
42513 5 1 149.042 
42516 5 0.5 149.908 
42517 5 1.5 149.908 
42521 5 1 150.774 
42522 5 2 150.774 
ITEM: TIMESTEP
80000
ITEM: NUMBER OF ATOMS
15
ITEM: BOX BOUNDS ff fm pp
-4.1000000000000000e+01 4.1000000000000000e+01
0.0000000000000000e+00 2.0000000000000000e+02
-2.5000000000000000e-01 2.5000000000000000e-01
ITEM: ATOMS id type x y 
42508 5 -1.12295e-15 145.443 
42509 5 -0.5 146.309 
42511 5 -1 147.175 
42512 5 -1.02336e-15 147.175 
42514 5 -1.5 148.041 
42515 5 -0.5 148.041 
42518 5 -2 148.907 
42519 5 -1 148.907 
42520 5 -9.23767e-16 148.907 
42510 5 0.5 146.309 
42513 5 1 147.175 
42516 5 0.5 148.041 
42517 5 1.5 148.041 
42521 5 1 148.907 
42522 5 2 148.907 
ITEM: TIMESTEP
90000
ITEM: NUMBER OF ATOMS
15
ITEM: BOX BOUNDS ff fm pp
-4.1000000000000000e+01 4.1000000000000000e+01
0.0000000000000000e+00 2.0000000000000000e+02
-2.5000000000000000e-01 2.5000000000000000e-01
ITEM: ATOMS id type x y 
42508 5 -1.34234e-15 143.326 
42509 5 -0.5 144.192 
42511 5 -1 145.058 
42512 5 -1.27441e-15 145.058 
42514 5 -1.5 145.924 
42515 5 -0.5 145.924 
42518 5 -2 146.79 
42519 5 -1 146.79 
42520 5 -1.20648e-15 146.79 
42510 5 0.5 144.192 
42513 5 1 145.058 
42516 5 0.5 145.924 
42517 5 1.5 145.924 
42521 5 1 146.79 
42522 5 2 146.79 
ITEM: TIMESTEP
100000
ITEM: NUMBER OF ATOMS
15
ITEM: BOX BOUNDS ff fm pp
-4.1000000000000000e+01 4.1000000000000000e+01
0.0000000000000000e+00 2.0000000000000000e+02
-2.5000000000000000e-01 2.5000000000000000e-01
ITEM: ATOMS id type x y 
42508 5 -1.59595e-15 140.959 
42509 5 -0.5 141.825 
42511 5 -1 142.691 
42512 5 -1.55698e-15 142.691 
42514 5 -1.5 143.557 
42515 5 -0.5 143.557 
42518 5 -2 144.423 
42519 5 -1 144.423 
42520 5 -1.51801e-15 144.423 
42510 5 0.5 141.825 
42513 5 1 142.691 
42516 5 0.5 143.557 
42517 5 1.5 143.557 
42521 5 1 144.423 
42522 5 2 144.423 
ITEM: TIMESTEP
110000
ITEM: NUMBER OF ATOMS
15
ITEM: BOX BOUNDS ff fm pp
-4.1000000000000000e+01 4.1000000000000000e+01
0.0000000000000000e+00 2.0000000000000000e+02
-2.5000000000000000e-01 2.5000000000000000e-01
ITEM: ATOMS id type x y 
42508 5 -1.87973e-15 138.342 
42509 5 -0.5 139.208 
42511 5 -1 140.074 
42512 5 -1.87005e-15 140.074 
42514 5 -1.5 140.94 
42515 5 -0.5 140.94 
42518 5 -2 141.806 
42519 5 -1 141.806 
42520 5 -1.86037e-15 141.806 
42510 5 0.5 139.208 
42513 5 1 140.074 
42516 5 0.5 140.94 
42517 5 1.5 140.94 
42521 5 1 141.806 
42522 5 2 141.806 
ITEM: TIMESTEP
120000
ITEM: NUMBER OF ATOMS
15
ITEM: BOX BOUNDS ff fm pp
-4.1000000000000000e+01 4.1000000000000000e+01
0.0000000000000000e+00 2.0000000000000000e+02
-2.5000000000000000e-01 2.5000000000000000e-01
ITEM: ATOMS id type x y 
42508 5 -2.22874e-15 135.475 
42509 5 -0.5 136.341 
42511 5 -1 137.207 
42512 5 -2.22239e-15 137.207 
42514 5 -1.5 138.073 
42515 5 -0.5 138.073 
42518 5 -2 138.939 
42519 5 -1 138.939 
42520 5 -2.21605e-15 138.939 
42510 5 0.5 136.341 
42513 5 1 137.207 
42516 5 0.5 138.073 
42517 5 1.5 138.073 
42521 5 1 138.939 
42522 5 2 138.939 
ITEM: TIMESTEP
130000
ITEM: NUMBER OF ATOMS
15
ITEM: BOX BOUNDS ff fm pp
-4.1000000000000000e+01 4.1000000000000000e+01
0.0000000000000000e+00 2.0000000000000000e+02
-2.5000000000000000e-01 2.5000000000000000e-01
ITEM: ATOMS id type x y 
42508 5 -2.64252e-15 132.358 
42509 5 -0.5 133.224 
42511 5 -1 134.09 
42512 5 -2.61389e-15 134.09 
42514 5 -1.5 134.956 
42515 5 -0.5 134.956 
42518 5 -2 135.822 
42519 5 -1 135.822 
42520 5 -2.58527e-15 135.822 
42510 5 0.5 133.224 
42513 5 1 134.09 
42516 5 0.5 134.956 
42517 5 1.5 134.956 
42521 5 1 135.822 
42522 5 2 135.822 
ITEM: TIMESTEP
140000
ITEM: NUMBER OF ATOMS
15
ITEM: BOX BOUNDS ff fm pp
-4.1000000000000000e+01 4.1000000000000000e+01
0.0000000000000000e+00 2.0000000000000000e+02
-2.5000000000000000e-01 2.5000000000000000e-01
ITEM: ATOMS id type x y 
42520 5 -2.98132e-15 132.455 
42519 5 -1 132.455 
42508 5 -3.09448e-15 128.991 
42509 5 -0.5 129.857 
42511 5 -1 130.723 
42512 5 -3.0379e-15 130.723 
42514 5 -1.5 131.589 
42515 5 -0.5 131.589 
42518 5 -2 132.455 
42522 5 2 132.455 
42510 5 0.5 129.857 
42513 5 1 130.723 
42516 5 0.5 131.589 
42517 5 1.5 131.589 
42521 5 1 132.455 
ITEM: TIMESTEP
150000
ITEM: NUMBER OF ATOMS
15
ITEM: BOX BOUNDS ff fm pp
-4.1000000000000000e+01 4.1000000000000000e+01
0.0000000000000000e+00 2.0000000000000000e+02
-2.5000000000000000e-01 2.5000000000000000e-01
ITEM: ATOMS id type x y 
42508 5 -1.67366e-07 125.373 
42509 5 -0.5 126.239 
42511 5 -1 127.105 
42512 5 -7.58337e-08 127.105 
42514 5 -1.5 127.971 
42515 5 -0.5 127.971 
42518 5 -2 128.837 
42519 5 -1 128.837 
42520 5 1.56983e-08 128.837 
42510 5 0.5 126.239 
42513 5 1 127.105 
42516 5 0.5 127.971 
42517 5 1.5 127.971 
42521 5 1 128.837 
42522 5 2 128.837 
ITEM: TIMESTEP
160000
ITEM: NUMBER OF ATOMS
15
ITEM: BOX BOUNDS ff fm pp
-4.1000000000000000e+01 4.1000000000000000e+01
0.0000000000000000e+00 2.0000000000000000e+02
-2.5000000000000000e-01 2.5000000000000000e-01
ITEM: ATOMS id type x y 
42508 5 -0.00119669 121.645 
42509 5 -0.50088 122.511 
42511 5 -1.00056 123.377 
42512 5 -0.000563768 123.377 
42514 5 -1.50025 124.243 
42515 5 -0.500247 124.243 
42518 5 -1.99993 125.109 
42519 5 -0.999931 125.109 
42510 5 0.49912 122.51 
42513 5 0.999436 123.376 
42516 5 0.499753 124.242 
42517 5 1.49975 124.242 
42520 5 6.91487e-05 125.109 
42521 5 1.00007 125.108 
42522 5 2.00007 125.108 
ITEM: TIMESTEP
170000
ITEM: NUMBER OF ATOMS
15
ITEM: BOX BOUNDS ff fm pp
-4.1000000000000000e+01 4.1000000000000000e+01
0.0000000000000000e+00 2.0000000000000000e+02
-2.5000000000000000e-01 2.5000000000000000e-01
ITEM: ATOMS id type x y 
42508 5 -0.00341436 117.73 
42509 5 -0.502487 118.596 
42511 5 -1.00156 119.463 
42512 5 -0.00156096 119.462 
42514 5 -1.50063 120.329 
42515 5 -0.500634 120.328 
42518 5 -1.99971 121.196 
42519 5 -0.999707 121.195 
42510 5 0.497512 118.595 
42513 5 0.998438 119.461 
42516 5 0.499365 120.327 
42517 5 1.49936 120.326 
42520 5 0.000292449 121.194 
42521 5 1.00029 121.193 
42522 5 2.00029 121.192 
ITEM: TIMESTEP
180000
ITEM: NUMBER OF ATOMS
15
ITEM: BOX BOUNDS ff fm pp
-4.1000000000000000e+01 4.1000000000000000e+01
0.0000000000000000e+00 2.0000000000000000e+02
-2.5000000000000000e-01 2.5000000000000000e-01
ITEM: ATOMS id type x y 
42508 5 -0.00845552 113.666 
42509 5 -0.50612 114.534 
42511 5 -1.00378 115.401 
42512 5 -0.00378736 115.398 
42514 5 -1.50145 116.268 
42515 5 -0.501451 116.266 
42518 5 -1.99911 117.136 
42519 5 -0.999116 117.133 
42510 5 0.493877 114.531 
42513 5 0.996209 115.396 
42516 5 0.498545 116.263 
42517 5 1.49854 116.26 
42520 5 0.000880803 117.13 
42521 5 1.00088 117.128 
42522 5 2.00087 117.125 
ITEM: TIMESTEP
190000
ITEM: NUMBER OF ATOMS
15
ITEM: BOX BOUNDS ff fm pp
-4.1000000000000000e+01 4.1000000000000000e+01
0.0000000000000000e+00 2.0000000000000000e+02
-2.5000000000000000e-01 2.5000000000000000e-01
ITEM: ATOMS id type x y 
42508 5 -0.0145079 109.411 
42509 5 -0.510565 110.279 
42511 5 -1.00662 111.147 
42512 5 -0.0066323 111.143 
42514 5 -1.50268 112.015 
42515 5 -0.502689 112.011 
42518 5 -1.99874 112.884 
42519 5 -0.998746 112.879 
42510 5 0.489425 110.274 
42513 5 0.993357 111.138 
42516 5 0.4973 112.006 
42517 5 1.49729 112.002 
42520 5 0.00124333 112.875 
42521 5 1.00123 112.87 
42522 5 2.00122 112.865 
ITEM: TIMESTEP
200000
ITEM: NUMBER OF ATOMS
15
ITEM: BOX BOUNDS ff fm pp
-4.1000000000000000e+01 4.1000000000000000e+01
0.0000000000000000e+00 2.0000000000000000e+02
-2.5000000000000000e-01 2.5000000000000000e-01
ITEM: ATOMS id type x y 
42508 5 -0.0327156 105.015 
42509 5 -0.523629 105.887 
42511 5 -1.01454 106.758 
42512 5 -0.0145965 106.747 
42514 5 -1.50545 107.629 
42515 5 -0.50551 107.618 
42518 5 -1.99637 108.5 
42519 5 -0.996423 108.49 
42510 5 0.476317 105.876 
42513 5 0.985349 106.737 
42516 5 0.494436 107.608 
42517 5 1.49438 107.598 
42520 5 0.00352251 108.479 
42521 5 1.00347 108.469 
42522 5 2.00341 108.458 
ITEM: TIMESTEP
210000
ITEM: NUMBER OF ATOMS
15
ITEM: BOX BOUNDS ff fm pp
-4.1000000000000000e+01 4.1000000000000000e+01
0.0000000000000000e+00 2.0000000000000000e+02
-2.5000000000000000e-01 2.5000000000000000e-01
ITEM: ATOMS id type x y 
42508 5 -0.0676368 100.454 
42509 5 -0.548906 101.331 
42511 5 -1.03017 102.208 
42512 5 -0.0304058 102.186 
42514 5 -1.51144 103.084 
42515 5 -0.511675 103.063 
42518 5 -1.99271 103.961 
42519 5 -0.992944 103.939 
42510 5 0.450863 101.31 
42513 5 0.969363 102.165 
42516 5 0.488094 103.041 
42517 5 1.48786 103.02 
42520 5 0.00682516 103.918 
42521 5 1.00659 103.896 
42522 5 2.00636 103.875 
ITEM: TIMESTEP
220000
ITEM: NUMBER OF ATOMS
15
ITEM: BOX BOUNDS ff fm pp
-4.1000000000000000e+01 4.1000000000000000e+01
0.0000000000000000e+00 2.0000000000000000e+02
-2.5000000000000000e-01 2.5000000000000000e-01
ITEM: ATOMS id type x y 
42508 5 -0.139401 95.7599 
42509 5 -0.601155 96.6469 
42511 5 -1.06291 97.5338 
42512 5 -0.0638601 97.4902 
42514 5 -1.52466 98.4208 
42515 5 -0.525614 98.3772 
42518 5 -1.98642 99.3078 
42519 5 -0.987368 99.2642 
42510 5 0.397894 96.6032 
42513 5 0.935188 97.4466 
42516 5 0.473434 98.3336 
42517 5 1.47248 98.29 
42520 5 0.0116805 99.2206 
42521 5 1.01073 99.177 
42522 5 2.00978 99.1333 
ITEM: TIMESTEP
230000
ITEM: NUMBER OF ATOMS
15
ITEM: BOX BOUNDS ff fm pp
-4.1000000000000000e+01 4.1000000000000000e+01
0.0000000000000000e+00 2.0000000000000000e+02
-2.5000000000000000e-01 2.5000000000000000e-01
ITEM: ATOMS id type x y 
42508 5 -0.248309 90.9261 
42509 5 -0.679071 91.8286 
42511 5 -1.10983 92.731 
42512 5 -0.112893 92.6528 
42514 5 -1.54059 93.6334 
42515 5 -0.543655 93.5553 
42518 5 -1.97136 94.5359 
42519 5 -0.974416 94.4577 
42510 5 0.317868 91.7504 
42513 5 0.884045 92.5746 
42516 5 0.453284 93.4771 
42517 5 1.45022 93.3989 
42520 5 0.0225224 94.3795 
42521 5 1.01946 94.3013 
42522 5 2.0164 94.2232 
ITEM: TIMESTEP
240000
ITEM: NUMBER OF ATOMS
15
ITEM: BOX BOUNDS ff fm pp
-4.1000000000000000e+01 4.1000000000000000e+01
0.0000000000000000e+00 2.0000000000000000e+02
-2.5000000000000000e-01 2.5000000000000000e-01
ITEM: ATOMS id type x y 
42508 5 -0.445702 86.0544 
42509 5 -0.814188 86.984 
42512 5 -0.193345 87.7679 
42511 5 -1.18267 87.9136 
42514 5 -1.55116 88.8433 
42515 5 -0.561831 88.6975 
42519 5 -0.930317 89.6272 
42518 5 -1.91965 89.7729 
42510 5 0.17514 86.8383 
42513 5 0.795983 87.6222 
42517 5 1.41683 88.4061 
42516 5 0.427497 88.5518 
42520 5 0.0590117 89.4815 
42521 5 1.04834 89.3358 
42522 5 2.03767 89.1901 
ITEM: TIMESTEP
250000
ITEM: NUMBER OF ATOMS
15
ITEM: BOX BOUNDS ff fm pp
-4.1000000000000000e+01 4.1000000000000000e+01
0.0000000000000000e+00 2.0000000000000000e+02
-2.5000000000000000e-01 2.5000000000000000e-01
ITEM: ATOMS id type x y 
42508 5 -0.670733 81.0259 
42509 5 -0.965999 81.9813 
42511 5 -1.26126 82.9367 
42512 5 -0.286219 82.7147 
42514 5 -1.55653 83.8921 
42515 5 -0.581486 83.6701 
42519 5 -0.876752 84.6255 
42518 5 -1.8518 84.8475 
42510 5 0.00904666 81.7593 
42513 5 0.688826 82.4927 
42516 5 0.39356 83.4481 
42517 5 1.36861 83.2261 
42521 5 1.07334 84.1815 
42522 5 2.04838 83.9595 
42520 5 0.0982938 84.4035 
ITEM: TIMESTEP
260000
ITEM: NUMBER OF ATOMS
15
ITEM: BOX BOUNDS ff fm pp
-4.1000000000000000e+01 4.1000000000000000e+01
0.0000000000000000e+00 2.0000000000000000e+02
-2.5000000000000000e-01 2.5000000000000000e-01
ITEM: ATOMS id type x y 
42508 5 -0.889829 75.9864 
42509 5 -1.10614 76.9627 
42510 5 -0.152466 76.6619 
42511 5 -1.32245 77.939 
42512 5 -0.368778 77.6382 
42515 5 -0.58509 78.6145 
42514 5 -1.53877 78.9153 
42518 5 -1.75508 79.8916 
42519 5 -0.801402 79.5908 
42513 5 0.584897 77.3374 
42517 5 1.32226 78.0128 
42516 5 0.368585 78.3137 
42522 5 2.05962 78.6883 
42520 5 0.152273 79.29 
42521 5 1.10595 78.9891 
ITEM: TIMESTEP
270000
ITEM: NUMBER OF ATOMS
15
ITEM: BOX BOUNDS ff fm pp
-4.1000000000000000e+01 4.1000000000000000e+01
0.0000000000000000e+00 2.0000000000000000e+02
-2.5000000000000000e-01 2.5000000000000000e-01
ITEM: ATOMS id type x y 
42508 5 -0.99533 70.7841 
42510 5 -0.241341 71.441 
42509 5 -1.18721 71.7655 
42511 5 -1.37909 72.7469 
42512 5 -0.433223 72.4224 
42514 5 -1.57098 73.7283 
42515 5 -0.625104 73.4038 
42519 5 -0.816986 74.3852 
42518 5 -1.76286 74.7097 
42513 5 0.512648 72.0978 
42517 5 1.26664 72.7547 
42516 5 0.320767 73.0792 
42521 5 1.07476 73.7361 
42522 5 2.02063 73.4115 
42520 5 0.128885 74.0606 
ITEM: TIMESTEP
280000
ITEM: NUMBER OF ATOMS
15
ITEM: BOX BOUNDS ff fm pp
-4.1000000000000000e+01 4.1000000000000000e+01
0.0000000000000000e+00 2.0000000000000000e+02
-2.5000000000000000e-01 2.5000000000000000e-01
ITEM: ATOMS id type x y 
42508 5 -1.0053 65.5646 
42510 5 -0.245486 66.2147 
42509 5 -1.18843 66.5477 
42512 5 -0.42862 67.1978 
42511 5 -1.37156 67.5307 
42514 5 -1.5547 68.5138 
42515 5 -0.611753 68.1808 
42519 5 -0.794886 69.1639 
42518 5 -1.73783 69.4968 
42513 5 0.514323 66.8648 
42516 5 0.33119 67.8479 
42517 5 1.27413 67.5149 
42521 5 1.091 68.498 
42522 5 2.03394 68.165 
42520 5 0.148057 68.8309 
ITEM: TIMESTEP
290000
ITEM: NUMBER OF ATOMS
15
ITEM: BOX BOUNDS ff fm pp
-4.1000000000000000e+01 4.1000000000000000e+01
0.0000000000000000e+00 2.0000000000000000e+02
-2.5000000000000000e-01 2.5000000000000000e-01
ITEM: ATOMS id type x y 
42508 5 -0.947349 60.5783 
42510 5 -0.174347 61.2127 
42509 5 -1.11025 61.5649 
42511 5 -1.27316 62.5515 
42512 5 -0.337251 62.1993 
42514 5 -1.43606 63.5382 
42515 5 -0.500155 63.1859 
42519 5 -0.663059 64.1725 
42518 5 -1.59896 64.5248 
42513 5 0.598655 61.847 
42517 5 1.37166 62.4814 
42516 5 0.435751 62.8337 
42522 5 2.14466 63.1158 
42521 5 1.20875 63.468 
42520 5 0.272847 63.8203 
ITEM: TIMESTEP
300000
ITEM: NUMBER OF ATOMS
15
ITEM: BOX BOUNDS ff fm pp
-4.1000000000000000e+01 4.1000000000000000e+01
0.0000000000000000e+00 2.0000000000000000e+02
-2.5000000000000000e-01 2.5000000000000000e-01
ITEM: ATOMS id type x y 
42508 5 -0.741144 55.4157 
42509 5 -0.95254 56.393 
42510 5 -0.000390563 56.0874 
42512 5 -0.211786 57.0648 
42511 5 -1.16394 57.3704 
42514 5 -1.37533 58.3478 
42515 5 -0.423182 58.0422 
42518 5 -1.58673 59.3252 
42519 5 -0.634578 59.0195 
42513 5 0.740363 56.7592 
42516 5 0.528967 57.7365 
42517 5 1.48112 57.4309 
42522 5 2.22187 58.1026 
42520 5 0.317571 58.7139 
42521 5 1.26972 58.4083 
ITEM: TIMESTEP
310000
ITEM: NUMBER OF ATOMS
15
ITEM: BOX BOUNDS ff fm pp
-4.1000000000000000e+01 4.1000000000000000e+01
0.0000000000000000e+00 2.0000000000000000e+02
-2.5000000000000000e-01 2.5000000000000000e-01
ITEM: ATOMS id type x y 
42508 5 -0.882517 50.7438 
42509 5 -1.07928 51.7243 
42510 5 -0.131804 51.4044 
42512 5 -0.328564 52.3849 
42511 5 -1.27604 52.7047 
42515 5 -0.525324 53.3653 
42514 5 -1.4728 53.6851 
42518 5 -1.66956 54.6656 
42519 5 -0.722084 54.3457 
42513 5 0.618909 52.065 
42517 5 1.36962 52.7256 
42516 5 0.422149 53.0455 
42522 5 2.12034 53.3862 
42520 5 0.225389 54.0259 
42521 5 1.17286 53.7061 
ITEM: TIMESTEP
320000
ITEM: NUMBER OF ATOMS
15
ITEM: BOX BOUNDS ff fm pp
-4.1000000000000000e+01 4.1000000000000000e+01
0.0000000000000000e+00 2.0000000000000000e+02
-2.5000000000000000e-01 2.5000000000000000e-01
ITEM: ATOMS id type x y 
42508 5 -1.23825 45.6944 
42510 5 -0.444426 46.3025 
42509 5 -1.368 46.6859 
42512 5 -0.574177 47.294 
42511 5 -1.49775 47.6775 
42514 5 -1.6275 48.669 
42515 5 -0.703928 48.2856 
42519 5 -0.833679 49.2771 
42518 5 -1.75726 49.6605 
42513 5 0.349399 46.9106 
42517 5 1.14322 47.5187 
42516 5 0.219648 47.9022 
42522 5 1.93705 48.1268 
42521 5 1.01347 48.5103 
42520 5 0.0898972 48.8937 
ITEM: TIMESTEP
330000
ITEM: NUMBER OF ATOMS
15
ITEM: BOX BOUNDS ff fm pp
-4.1000000000000000e+01 4.1000000000000000e+01
0.0000000000000000e+00 2.0000000000000000e+02
-2.5000000000000000e-01 2.5000000000000000e-01
ITEM: ATOMS id type x y 
42508 5 -1.55058 40.7205 
42510 5 -0.708669 41.2601 
42509 5 -1.59693 41.7194 
42511 5 -1.64328 42.7183 
42512 5 -0.755019 42.259 
42515 5 -0.801369 43.2579 
42514 5 -1.68963 43.7172 
42519 5 -0.847719 44.2568 
42518 5 -1.73598 44.7161 
42513 5 0.133245 41.7996 
42517 5 0.975159 42.3392 
42516 5 0.0868951 42.7985 
42521 5 0.928809 43.3381 
42522 5 1.81707 42.8788 
42520 5 0.0405453 43.7974 
ITEM: TIMESTEP
340000
ITEM: NUMBER OF ATOMS
15
ITEM: BOX BOUNDS ff fm pp
-4.1000000000000000e+01 4.1000000000000000e+01
0.0000000000000000e+00 2.0000000000000000e+02
-2.5000000000000000e-01 2.5000000000000000e-01
ITEM: ATOMS id type x y 
42508 5 -1.86434 35.679 
42510 5 -0.983069 36.1516 
42509 5 -1.83298 36.6785 
42513 5 -0.101799 36.6242 
42512 5 -0.951715 37.1511 
42511 5 -1.80163 37.678 
42516 5 -0.0704451 37.6236 
42515 5 -0.920361 38.1506 
42514 5 -1.77028 38.6775 
42519 5 -0.889007 39.1501 
42520 5 -0.0390911 38.6231 
42518 5 -1.73892 39.677 
42517 5 0.77947 37.0967 
42522 5 1.66074 37.5693 
42521 5 0.810824 38.0962 
ITEM: TIMESTEP
350000
ITEM: NUMBER OF ATOMS
15
ITEM: BOX BOUNDS ff fm pp
-4.1000000000000000e+01 4.1000000000000000e+01
0.0000000000000000e+00 2.0000000000000000e+02
-2.5000000000000000e-01 2.5000000000000000e-01
ITEM: ATOMS id type x y 
42508 5 -2.52644 30.9627 
42510 5 -1.56386 31.2337 
42509 5 -2.27979 31.9318 
42513 5 -0.601277 31.5046 
42512 5 -1.31721 32.2027 
42516 5 -0.354628 32.4736 
42511 5 -2.03314 32.9009 
42515 5 -1.07056 33.1718 
42520 5 -0.107979 33.4427 
42514 5 -1.78649 33.87 
42519 5 -0.823911 34.1409 
42518 5 -1.53984 34.8391 
42517 5 0.361304 31.7755 
42522 5 1.32389 32.0464 
42521 5 0.607953 32.7446 
ITEM: TIMESTEP
360000
ITEM: NUMBER OF ATOMS
15
ITEM: BOX BOUNDS ff fm pp
-4.1000000000000000e+01 4.1000000000000000e+01
0.0000000000000000e+00 2.0000000000000000e+02
-2.5000000000000000e-01 2.5000000000000000e-01
ITEM: ATOMS id type x y 
42508 5 -2.96615 26.4085 
42510 5 -1.99908 26.6629 
42513 5 -1.03201 26.9173 
42517 5 -0.064934 27.1717 
42509 5 -2.70297 27.3732 
42512 5 -1.7359 27.6276 
42511 5 -2.43978 28.3379 
42516 5 -0.768822 27.882 
42515 5 -1.47271 28.5923 
42520 5 -0.505638 28.8467 
42514 5 -2.1766 29.3026 
42519 5 -1.20953 29.557 
42518 5 -1.91341 30.2674 
42522 5 0.902139 27.4261 
42521 5 0.198251 28.1364 
ITEM: TIMESTEP
370000
ITEM: NUMBER OF ATOMS
15
ITEM: BOX BOUNDS ff fm pp
-4.1000000000000000e+01 4.1000000000000000e+01
0.0000000000000000e+00 2.0000000000000000e+02
-2.5000000000000000e-01 2.5000000000000000e-01
ITEM: ATOMS id type x y 
42508 5 -3.57196 22.1731 
42510 5 -2.61307 22.4568 
42513 5 -1.65419 22.7405 
42517 5 -0.695301 23.0243 
42509 5 -3.33824 23.1454 
42512 5 -2.37936 23.4291 
42511 5 -3.10453 24.1177 
42516 5 -1.42047 23.7128 
42521 5 -0.461588 23.9965 
42515 5 -2.14565 24.4014 
42520 5 -1.18676 24.6851 
42514 5 -2.87082 25.09 
42519 5 -1.91193 25.3737 
42518 5 -2.63711 26.0622 
42522 5 0.263584 23.308 
ITEM: TIMESTEP
380000
ITEM: NUMBER OF ATOMS
15
ITEM: BOX BOUNDS ff fm pp
-4.1000000000000000e+01 4.1000000000000000e+01
0.0000000000000000e+00 2.0000000000000000e+02
-2.5000000000000000e-01 2.5000000000000000e-01
ITEM: ATOMS id type x y 
42508 5 -4.10629 18.3025 
42510 5 -3.1779 18.674 
42509 5 -3.96389 19.2923 
42513 5 -2.24951 19.0456 
42517 5 -1.32112 19.4171 
42512 5 -3.0355 19.6638 
42516 5 -2.10711 20.0354 
42522 5 -0.392729 19.7887 
42511 5 -3.82149 20.2821 
42515 5 -2.8931 20.6536 
42521 5 -1.17872 20.4069 
42514 5 -3.67909 21.2718 
42520 5 -1.96471 21.0251 
42519 5 -2.7507 21.6434 
42518 5 -3.53669 22.2616 
ITEM: TIMESTEP
390000
ITEM: NUMBER OF ATOMS
15
ITEM: BOX BOUNDS ff fm pp
-4.1000000000000000e+01 4.1000000000000000e+01
0.0000000000000000e+00 2.0000000000000000e+02
-2.5000000000000000e-01 2.5000000000000000e-01
ITEM: ATOMS id type x y 
42508 5 -5.02541 14.8914 
42510 5 -4.11284 15.3003 
42509 5 -4.92323 15.8862 
42513 5 -3.20026 15.7092 
42512 5 -4.01066 16.295 
42517 5 -2.28769 16.118 
42522 5 -1.37512 16.5269 
42511 5 -4.82105 16.8809 
42516 5 -3.09808 16.7039 
42521 5 -2.18551 17.1128 
42515 5 -3.90848 17.2898 
42520 5 -2.99591 17.6986 
42514 5 -4.71887 17.8757 
42519 5 -3.8063 18.2845 
42518 5 -4.6167 18.8704 
ITEM: TIMESTEP
400000
ITEM: NUMBER OF ATOMS
15
ITEM: BOX BOUNDS ff fm pp
-4.1000000000000000e+01 4.1000000000000000e+01
0.0000000000000000e+00 2.0000000000000000e+02
-2.5000000000000000e-01 2.5000000000000000e-01
ITEM: ATOMS id type x y 
42508 5 -5.79542 11.9641 
42509 5 -5.7866 12.9641 
42510 5 -4.92503 12.4565 
42513 5 -4.05463 12.9488 
42512 5 -4.91621 13.4564 
42517 5 -3.18424 13.4411 
42511 5 -5.77779 13.964 
42516 5 -4.04582 13.9487 
42522 5 -2.31385 13.9334 
42515 5 -4.90739 14.4563 
42521 5 -3.17542 14.441 
42514 5 -5.76897 14.964 
42520 5 -4.037 14.9486 
42518 5 -5.76016 15.9639 
42519 5 -4.89858 15.4563 
ITEM: TIMESTEP
410000
ITEM: NUMBER OF ATOMS
15
ITEM: BOX BOUNDS ff fm pp
-4.1000000000000000e+01 4.1000000000000000e+01
0.0000000000000000e+00 2.0000000000000000e+02
-2.5000000000000000e-01 2.5000000000000000e-01
ITEM: ATOMS id type x y 
42508 5 -6.64454 9.70074 
42510 5 -5.75194 10.1515 
42513 5 -4.85934 10.6024 
42509 5 -6.58867 10.6992 
42512 5 -5.69608 11.15 
42517 5 -3.96675 11.0532 
42511 5 -6.53281 11.6976 
42516 5 -4.80348 11.6008 
42522 5 -3.07415 11.504 
42515 5 -5.64021 12.1484 
42521 5 -3.91088 12.0516 
42514 5 -6.47695 12.696 
42520 5 -4.74762 12.5992 
42519 5 -5.58435 13.1468 
42518 5 -6.42108 13.6944 
ITEM: TIMESTEP
420000
ITEM: NUMBER OF ATOMS
15
ITEM: BOX BOUNDS ff fm pp
-4.1000000000000000e+01 4.1000000000000000e+01
0.0000000000000000e+00 2.0000000000000000e+02
-2.5000000000000000e-01 2.5000000000000000e-01
ITEM: ATOMS id type x y 
42508 5 -7.40543 8.16089 
42510 5 -6.49902 8.58326 
42509 5 -7.31803 9.15704 
42513 5 -5.59262 9.00562 
42517 5 -4.68622 9.42798 
42512 5 -6.41162 9.57941 
42516 5 -5.50522 10.0018 
42522 5 -3.77981 9.85034 
42511 5 -7.23063 10.1532 
42515 5 -6.32422 10.5756 
42521 5 -4.59882 10.4241 
42514 5 -7.14323 11.1493 
42520 5 -5.41782 10.9979 
42519 5 -6.23682 11.5717 
42518 5 -7.05583 12.1455 
ITEM: TIMESTEP
430000
ITEM: NUMBER OF ATOMS
15
ITEM: BOX BOUNDS ff fm pp
-4.1000000000000000e+01 4.1000000000000000e+01
0.0000000000000000e+00 2.0000000000000000e+02
-2.5000000000000000e-01 2.5000000000000000e-01
ITEM: ATOMS id type x y 
42508 5 -7.96161 7.40596 
42510 5 -7.00834 7.70801 
42509 5 -7.74659 8.38255 
42513 5 -6.05507 8.01007 
42517 5 -5.1018 8.31213 
42512 5 -6.79332 8.6846 
42522 5 -4.14854 8.61418 
42511 5 -7.53156 9.35913 
42516 5 -5.84005 8.98666 
42521 5 -4.88678 9.28871 
42515 5 -6.5783 9.66119 
42520 5 -5.62503 9.96324 
42514 5 -7.31654 10.3357 
42519 5 -6.36328 10.6378 
42518 5 -7.10152 11.3123 
ITEM: TIMESTEP
440000
ITEM: NUMBER OF ATOMS
15
ITEM: BOX BOUNDS ff fm pp
-4.1000000000000000e+01 4.1000000000000000e+01
0.0000000000000000e+00 2.0000000000000000e+02
-2.5000000000000000e-01 2.5000000000000000e-01
ITEM: ATOMS id type x y 
42508 5 -8.27739 7.19659 
42510 5 -7.29967 7.40638 
42513 5 -6.32194 7.61617 
42509 5 -7.97024 8.14823 
42512 5 -6.99251 8.35802 
42517 5 -5.34422 7.82596 
42522 5 -4.3665 8.03575 
42516 5 -6.01479 8.56781 
42521 5 -5.03707 8.7776 
42511 5 -7.66308 9.09986 
42515 5 -6.68536 9.30965 
42520 5 -5.70764 9.51944 
42514 5 -7.35593 10.0515 
42519 5 -6.37821 10.2613 
42518 5 -7.04878 11.0031 
ITEM: TIMESTEP
450000
ITEM: NUMBER OF ATOMS
15
ITEM: BOX BOUNDS ff fm pp
-4.1000000000000000e+01 4.1000000000000000e+01
0.0000000000000000e+00 2.0000000000000000e+02
-2.5000000000000000e-01 2.5000000000000000e-01
ITEM: ATOMS id type x y 
42508 5 -8.42925 7.19356 
42510 5 -7.44565 7.3738 
42513 5 -6.46205 7.55404 
42517 5 -5.47845 7.73428 
42509 5 -8.09356 8.13551 
42512 5 -7.10996 8.31575 
42522 5 -4.49485 7.91452 
42516 5 -6.12636 8.49599 
42521 5 -5.14276 8.67623 
42511 5 -7.75788 9.07746 
42515 5 -6.77428 9.2577 
42520 5 -5.79068 9.43794 
42514 5 -7.4222 10.0194 
42519 5 -6.4386 10.1997 
42518 5 -7.08652 10.9614 
ITEM: TIMESTEP
460000
ITEM: NUMBER OF ATOMS
15
ITEM: BOX BOUNDS ff fm pp
-4.1000000000000000e+01 4.1000000000000000e+01
0.0000000000000000e+00 2.0000000000000000e+02
-2.5000000000000000e-01 2.5000000000000000e-01
ITEM: ATOMS id type x y 
42508 5 -8.40284 7.21536 
42510 5 -7.41925 7.39565 
42513 5 -6.43565 7.57594 
42517 5 -5.45206 7.75623 
42509 5 -8.0672 8.15733 
42512 5 -7.08361 8.33762 
42522 5 -4.46847 7.93652 
42516 5 -6.10002 8.51791 
42521 5 -5.11643 8.6982 
42511 5 -7.73156 9.0993 
42515 5 -6.74797 9.27959 
42520 5 -5.76438 9.45988 
42514 5 -7.39593 10.0413 
42519 5 -6.41234 10.2216 
42518 5 -7.06029 10.9832 
ITEM: TIMESTEP
470000
ITEM: NUMBER OF ATOMS
15
ITEM: BOX BOUNDS ff fm pp
-4.1000000000000000e+01 4.1000000000000000e+01
0.0000000000000000e+00 2.0000000000000000e+02
-2.5000000000000000e-01 2.5000000000000000e-01
ITEM: ATOMS id type x y 
42508 5 -8.33816 7.23757 
42510 5 -7.35551 7.42292 
42513 5 -6.37286 7.60827 
42517 5 -5.39022 7.79362 
42509 5 -8.00738 8.18125 
42512 5 -7.02473 8.3666 
42522 5 -4.40757 7.97898 
42516 5 -6.04208 8.55196 
42521 5 -5.05943 8.73731 
42511 5 -7.6766 9.12494 
42515 5 -6.69395 9.31029 
42520 5 -5.7113 9.49564 
42514 5 -7.34582 10.0686 
42519 5 -6.36317 10.254 
42518 5 -7.01504 11.0123 
ITEM: TIMESTEP
480000
ITEM: NUMBER OF ATOMS
15
ITEM: BOX BOUNDS ff fm pp
-4.1000000000000000e+01 4.1000000000000000e+01
0.0000000000000000e+00 2.0000000000000000e+02
-2.5000000000000000e-01 2.5000000000000000e-01
ITEM: ATOMS id type x y 
42508 5 -8.34757 7.23764 
42510 5 -7.36514 7.42414 
42513 5 -6.38271 7.61064 
42517 5 -5.40027 7.79714 
42509 5 -8.01789 8.18171 
42512 5 -7.03546 8.36821 
42522 5 -4.41784 7.98364 
42516 5 -6.05303 8.55471 
42521 5 -5.0706 8.74121 
42511 5 -7.68821 9.12578 
42515 5 -6.70578 9.31228 
42520 5 -5.72335 9.49878 
42514 5 -7.35854 10.0698 
42519 5 -6.3761 10.2563 
42518 5 -7.02886 11.0139 
ITEM: TIMESTEP
490000
ITEM: NUMBER OF ATOMS
15
ITEM: BOX BOUNDS ff fm pp
-4.1000000000000000e+01 4.1000000000000000e+01
0.0000000000000000e+00 2.0000000000000000e+02