ITEM: TIMESTEP
0
ITEM: NUMBER OF ATOMS
15
ITEM: BOX BOUNDS ff fm pp
-4.1000000000000000e+01 4.1000000000000000e+01
0.0000000000000000e+00 2.0000000000000000e+02
-2.5000000000000000e-01 2.5000000000000000e-01
ITEM: ATOMS id type x y 
42464 2 -0.5 140.866 
42466 2 -1 141.732 
42469 2 -1.5 142.598 
42470 2 -0.5 142.598 
42473 2 -2 143.464 
42474 2 -1 143.464 
42463 2 0 140 
42465 2 0.5 140.866 
42467 2 0 141.732 
42468 2 1 141.732 
42471 2 0.5 142.598 
42472 2 1.5 142.598 
42475 2 0 143.464 
42476 2 1 143.464 
42477 2 2 143.464 
ITEM: TIMESTEP
10000
ITEM: NUMBER OF ATOMS
15
ITEM: BOX BOUNDS ff fm pp
-4.1000000000000000e+01 4.1000000000000000e+01
0.0000000000000000e+00 2.0000000000000000e+02
-2.5000000000000000e-01 2.5000000000000000e-01
ITEM: ATOMS id type x y 
42463 2 -6.38043e-18 139.866 
42464 2 -0.5 140.732 
42466 2 -1 141.598 
42467 2 -1.22507e-17 141.598 
42469 2 -1.5 142.464 
42470 2 -0.5 142.464 
42473 2 -2 143.33 
42474 2 -1 143.33 
42475 2 -1.8121e-17 143.33 
42465 2 0.5 140.732 
42468 2 1 141.598 
42471 2 0.5 142.464 
42472 2 1.5 142.464 
42476 2 1 143.33 
42477 2 2 143.33 
ITEM: TIMESTEP
20000
ITEM: NUMBER OF ATOMS
15
ITEM: BOX BOUNDS ff fm pp
-4.1000000000000000e+01 4.1000000000000000e+01
0.0000000000000000e+00 2.0000000000000000e+02
-2.5000000000000000e-01 2.5000000000000000e-01
ITEM: ATOMS id type x y 
42463 2 -1.9724e-17 139.48 
42464 2 -0.5 140.346 
42466 2 -1 141.212 
42467 2 -4.87914e-17 141.212 
42469 2 -1.5 142.078 
42470 2 -0.5 142.078 
42473 2 -2 142.944 
42474 2 -1 142.944 
42475 2 -7.78589e-17 142.944 
42465 2 0.5 140.346 
42468 2 1 141.212 
42471 2 0.5 142.078 
42472 2 1.5 142.078 
42476 2 1 142.944 
42477 2 2 142.944 
ITEM: TIMESTEP
30000
ITEM: NUMBER OF ATOMS
15
ITEM: BOX BOUNDS ff fm pp
-4.1000000000000000e+01 4.1000000000000000e+01
0.0000000000000000e+00 2.0000000000000000e+02
-2.5000000000000000e-01 2.5000000000000000e-01
ITEM: ATOMS id type x y 
42463 2 -6.7908e-17 138.844 
42464 2 -0.5 139.71 
42466 2 -1 140.576 
42467 2 -1.17004e-16 140.576 
42469 2 -1.5 141.442 
42470 2 -0.5 141.442 
42473 2 -2 142.308 
42474 2 -1 142.308 
42475 2 -1.66101e-16 142.308 
42465 2 0.5 139.71 
42468 2 1 140.576 
42471 2 0.5 141.442 
42472 2 1.5 141.442 
42476 2 1 142.308 
42477 2 2 142.308 
ITEM: TIMESTEP
40000
ITEM: NUMBER OF ATOMS
15
ITEM: BOX BOUNDS ff fm pp
-4.1000000000000000e+01 4.1000000000000000e+01
0.0000000000000000e+00 2.0000000000000000e+02
-2.5000000000000000e-01 2.5000000000000000e-01
ITEM: ATOMS id type x y 
42463 2 -1.58492e-16 137.958 
42464 2 -0.5 138.824 
42466 2 -1 139.69 
42467 2 -2.18779e-16 139.69 
42469 2 -1.5 140.556 
42470 2 -0.5 140.556 
42473 2 -2 141.422 
42474 2 -1 141.422 
42475 2 -2.79066e-16 141.422 
42465 2 0.5 138.824 
42468 2 1 139.69 
42471 2 0.5 140.556 
42472 2 1.5 140.556 
42476 2 1 141.422 
42477 2 2 141.422 
ITEM: TIMESTEP
50000
ITEM: NUMBER OF ATOMS
15
ITEM: BOX BOUNDS ff fm pp
-4.1000000000000000e+01 4.1000000000000000e+01
0.0000000000000000e+00 2.0000000000000000e+02
-2.5000000000000000e-01 2.5000000000000000e-01
ITEM: ATOMS id type x y 
42463 2 -2.89402e-16 136.822 
42464 2 -0.5 137.688 
42466 2 -1 138.554 
42467 2 -3.53598e-16 138.554 
42469 2 -1.5 139.42 
42470 2 -0.5 139.42 
42473 2 -2 140.286 
42474 2 -1 140.286 
42475 2 -4.17794e-16 140.286 
42465 2 0.5 137.688 
42468 2 1 138.554 
42471 2 0.5 139.42 
42472 2 1.5 139.42 
42476 2 1 140.286 
42477 2 2 140.286 
ITEM: TIMESTEP
60000
ITEM: NUMBER OF ATOMS
15
ITEM: BOX BOUNDS ff fm pp
-4.1000000000000000e+01 4.1000000000000000e+01
0.0000000000000000e+00 2.0000000000000000e+02
-2.5000000000000000e-01 2.5000000000000000e-01
ITEM: ATOMS id type x y 
42463 2 -4.51335e-16 135.436 
42464 2 -0.5 136.302 
42466 2 -1 137.168 
42467 2 -5.19134e-16 137.168 
42469 2 -1.5 138.034 
42470 2 -0.5 138.034 
42473 2 -2 138.9 
42474 2 -1 138.9 
42475 2 -5.86933e-16 138.9 
42465 2 0.5 136.302 
42468 2 1 137.168 
42471 2 0.5 138.034 
42472 2 1.5 138.034 
42476 2 1 138.9 
42477 2 2 138.9 
ITEM: TIMESTEP
70000
ITEM: NUMBER OF ATOMS
15
ITEM: BOX BOUNDS ff fm pp
-4.1000000000000000e+01 4.1000000000000000e+01
0.0000000000000000e+00 2.0000000000000000e+02
-2.5000000000000000e-01 2.5000000000000000e-01
ITEM: ATOMS id type x y 
42463 2 -6.4799e-16 133.799 
42464 2 -0.5 134.665 
42466 2 -1 135.531 
42467 2 -7.16312e-16 135.531 
42469 2 -1.5 136.397 
42470 2 -0.5 136.397 
42473 2 -2 137.263 
42474 2 -1 137.263 
42475 2 -7.84634e-16 137.263 
42465 2 0.5 134.665 
42468 2 1 135.531 
42471 2 0.5 136.397 
42472 2 1.5 136.397 
42476 2 1 137.263 
42477 2 2 137.263 
ITEM: TIMESTEP
80000
ITEM: NUMBER OF ATOMS
15
ITEM: BOX BOUNDS ff fm pp
-4.1000000000000000e+01 4.1000000000000000e+01
0.0000000000000000e+00 2.0000000000000000e+02
-2.5000000000000000e-01 2.5000000000000000e-01
ITEM: ATOMS id type x y 
42463 2 -8.76325e-16 131.913 
42464 2 -0.5 132.779 
42466 2 -1 133.645 
42467 2 -9.4437e-16 133.645 
42469 2 -1.5 134.511 
42470 2 -0.5 134.511 
42473 2 -2 135.377 
42474 2 -1 135.377 
42475 2 -1.01241e-15 135.377 
42465 2 0.5 132.779 
42468 2 1 133.645 
42471 2 0.5 134.511 
42472 2 1.5 134.511 
42476 2 1 135.377 
42477 2 2 135.377 
ITEM: TIMESTEP
90000
ITEM: NUMBER OF ATOMS
15
ITEM: BOX BOUNDS ff fm pp
-4.1000000000000000e+01 4.1000000000000000e+01
0.0000000000000000e+00 2.0000000000000000e+02
-2.5000000000000000e-01 2.5000000000000000e-01
ITEM: ATOMS id type x y 
42463 2 -1.14588e-15 129.777 
42464 2 -0.5 130.643 
42466 2 -1 131.509 
42467 2 -1.20569e-15 131.509 
42469 2 -1.5 132.375 
42470 2 -0.5 132.375 
42473 2 -2 133.241 
42474 2 -1 133.241 
42475 2 -1.26551e-15 133.241 
42465 2 0.5 130.643 
42468 2 1 131.509 
42471 2 0.5 132.375 
42472 2 1.5 132.375 
42476 2 1 133.241 
42477 2 2 133.241 
ITEM: TIMESTEP
100000
ITEM: NUMBER OF ATOMS
15
ITEM: BOX BOUNDS ff fm pp
-4.1000000000000000e+01 4.1000000000000000e+01
0.0000000000000000e+00 2.0000000000000000e+02
-2.5000000000000000e-01 2.5000000000000000e-01
ITEM: ATOMS id type x y 
42463 2 -1.45313e-15 127.391 
42464 2 -0.5 128.257 
42466 2 -1 129.123 
42467 2 -1.4994e-15 129.123 
42469 2 -1.5 129.989 
42470 2 -0.5 129.989 
42473 2 -2 130.855 
42474 2 -1 130.855 
42475 2 -1.54568e-15 130.855 
42465 2 0.5 128.257 
42468 2 1 129.123 
42471 2 0.5 129.989 
42472 2 1.5 129.989 
42476 2 1 130.855 
42477 2 2 130.855 
ITEM: TIMESTEP
110000
ITEM: NUMBER OF ATOMS
15
ITEM: BOX BOUNDS ff fm pp
-4.1000000000000000e+01 4.1000000000000000e+01
0.0000000000000000e+00 2.0000000000000000e+02
-2.5000000000000000e-01 2.5000000000000000e-01
ITEM: ATOMS id type x y 
42463 2 -1.78942e-15 124.755 
42464 2 -0.5 125.621 
42466 2 -1 126.487 
42467 2 -1.82333e-15 126.487 
42469 2 -1.5 127.353 
42470 2 -0.5 127.353 
42473 2 -2 128.219 
42474 2 -1 128.219 
42475 2 -1.85725e-15 128.219 
42465 2 0.5 125.621 
42468 2 1 126.487 
42471 2 0.5 127.353 
42472 2 1.5 127.353 
42476 2 1 128.219 
42477 2 2 128.219 
ITEM: TIMESTEP
120000
ITEM: NUMBER OF ATOMS
15
ITEM: BOX BOUNDS ff fm pp
-4.1000000000000000e+01 4.1000000000000000e+01
0.0000000000000000e+00 2.0000000000000000e+02
-2.5000000000000000e-01 2.5000000000000000e-01
ITEM: ATOMS id type x y 
42463 2 -2.15252e-15 121.869 
42464 2 -0.5 122.735 
42466 2 -1 123.601 
42467 2 -2.17693e-15 123.601 
42469 2 -1.5 124.467 
42470 2 -0.5 124.467 
42473 2 -2 125.333 
42474 2 -1 125.333 
42475 2 -2.20134e-15 125.333 
42465 2 0.5 122.735 
42468 2 1 123.601 
42471 2 0.5 124.467 
42472 2 1.5 124.467 
42476 2 1 125.333 
42477 2 2 125.333 
ITEM: TIMESTEP
130000
ITEM: NUMBER OF ATOMS
15
ITEM: BOX BOUNDS ff fm pp
-4.1000000000000000e+01 4.1000000000000000e+01
0.0000000000000000e+00 2.0000000000000000e+02
-2.5000000000000000e-01 2.5000000000000000e-01
ITEM: ATOMS id type x y 
42464 2 -0.491719 119.622 
42466 2 -0.994553 120.487 
42469 2 -1.49739 121.351 
42470 2 -0.497392 121.354 
42473 2 -2.00022 122.215 
42474 2 -1.00023 122.219 
42475 2 -0.000231218 122.222 
42463 2 0.0111143 118.758 
42465 2 0.508275 119.626 
42467 2 0.00544153 120.49 
42468 2 1.00544 120.493 
42471 2 0.502602 121.358 
42472 2 1.5026 121.361 
42476 2 0.999763 122.225 
42477 2 1.99976 122.229 
ITEM: TIMESTEP
140000
ITEM: NUMBER OF ATOMS
15
ITEM: BOX BOUNDS ff fm pp
-4.1000000000000000e+01 4.1000000000000000e+01
0.0000000000000000e+00 2.0000000000000000e+02
-2.5000000000000000e-01 2.5000000000000000e-01
ITEM: ATOMS id type x y 
42464 2 -0.473511 116.319 
42466 2 -0.984329 117.179 
42469 2 -1.49515 118.038 
42470 2 -0.495226 118.051 
42473 2 -2.00597 118.898 
42474 2 -1.00604 118.91 
42475 2 -0.0061231 118.923 
42463 2 0.0373077 115.459 
42465 2 0.526411 116.331 
42467 2 0.0155923 117.191 
42468 2 1.01551 117.204 
42471 2 0.504695 118.063 
42472 2 1.50462 118.076 
42476 2 0.993798 118.936 
42477 2 1.99372 118.948 
ITEM: TIMESTEP
150000
ITEM: NUMBER OF ATOMS
15
ITEM: BOX BOUNDS ff fm pp
-4.1000000000000000e+01 4.1000000000000000e+01
0.0000000000000000e+00 2.0000000000000000e+02
-2.5000000000000000e-01 2.5000000000000000e-01
ITEM: ATOMS id type x y 
42464 2 -0.454801 112.827 
42466 2 -0.97825 113.679 
42469 2 -1.5017 114.531 
42470 2 -0.502073 114.558 
42473 2 -2.02515 115.383 
42474 2 -1.02552 115.41 
42475 2 -0.025895 115.438 
42463 2 0.0686493 111.975 
42465 2 0.544827 112.854 
42467 2 0.0213771 113.706 
42468 2 1.021 113.734 
42471 2 0.497555 114.586 
42472 2 1.49718 114.613 
42476 2 0.973732 115.465 
42477 2 1.97336 115.492 
ITEM: TIMESTEP
160000
ITEM: NUMBER OF ATOMS
15
ITEM: BOX BOUNDS ff fm pp
-4.1000000000000000e+01 4.1000000000000000e+01
0.0000000000000000e+00 2.0000000000000000e+02
-2.5000000000000000e-01 2.5000000000000000e-01
ITEM: ATOMS id type x y 
42464 2 -0.479315 109.135 
42466 2 -1.00276 109.987 
42469 2 -1.5262 110.839 
42470 2 -0.526572 110.866 
42473 2 -2.04964 111.691 
42474 2 -1.05001 111.718 
42475 2 -0.0503864 111.746 
42467 2 -0.00312985 110.014 
42463 2 0.0441267 108.283 
42465 2 0.520312 109.162 
42468 2 0.996498 110.042 
42471 2 0.473056 110.894 
42472 2 1.47268 110.921 
42476 2 0.949241 111.773 
42477 2 1.94887 111.8 
ITEM: TIMESTEP
170000
ITEM: NUMBER OF ATOMS
15
ITEM: BOX BOUNDS ff fm pp
-4.1000000000000000e+01 4.1000000000000000e+01
0.0000000000000000e+00 2.0000000000000000e+02
-2.5000000000000000e-01 2.5000000000000000e-01
ITEM: ATOMS id type x y 
42464 2 -0.474869 105.214 
42466 2 -1.01104 106.058 
42467 2 -0.0119394 106.1 
42469 2 -1.54722 106.902 
42470 2 -0.548115 106.944 
42473 2 -2.0834 107.746 
42474 2 -1.08429 107.788 
42475 2 -0.0851861 107.831 
42463 2 0.0613072 104.37 
42465 2 0.524237 105.256 
42468 2 0.987166 106.143 
42471 2 0.45099 106.987 
42472 2 1.4501 107.029 
42476 2 0.913919 107.873 
42477 2 1.91302 107.915 
ITEM: TIMESTEP
180000
ITEM: NUMBER OF ATOMS
15
ITEM: BOX BOUNDS ff fm pp
-4.1000000000000000e+01 4.1000000000000000e+01
0.0000000000000000e+00 2.0000000000000000e+02
-2.5000000000000000e-01 2.5000000000000000e-01
ITEM: ATOMS id type x y 
42464 2 -0.449844 101.13 
42466 2 -1.00334 101.963 
42467 2 -0.00531653 102.026 
42469 2 -1.55683 102.796 
42470 2 -0.558808 102.859 
42473 2 -2.11032 103.629 
42474 2 -1.1123 103.692 
42475 2 -0.11428 103.755 
42463 2 0.103647 100.298 
42465 2 0.548175 101.193 
42468 2 0.992703 102.089 
42471 2 0.439211 102.922 
42472 2 1.43723 102.985 
42476 2 0.883739 103.818 
42477 2 1.88176 103.881 
ITEM: TIMESTEP
190000
ITEM: NUMBER OF ATOMS
15
ITEM: BOX BOUNDS ff fm pp
-4.1000000000000000e+01 4.1000000000000000e+01
0.0000000000000000e+00 2.0000000000000000e+02
-2.5000000000000000e-01 2.5000000000000000e-01
ITEM: ATOMS id type x y 
42464 2 -0.415654 96.9038 
42466 2 -0.987416 97.7242 
42469 2 -1.55918 98.5446 
42470 2 -0.562793 98.6296 
42473 2 -2.13094 99.365 
42474 2 -1.13455 99.45 
42475 2 -0.13817 99.5349 
42463 2 0.156108 96.0834 
42465 2 0.580731 96.9888 
42467 2 0.00896889 97.8092 
42468 2 1.00535 97.8941 
42471 2 0.433592 98.7145 
42472 2 1.42998 98.7995 
42476 2 0.858215 99.6199 
42477 2 1.8546 99.7048 
ITEM: TIMESTEP
200000
ITEM: NUMBER OF ATOMS
15
ITEM: BOX BOUNDS ff fm pp
-4.1000000000000000e+01 4.1000000000000000e+01
0.0000000000000000e+00 2.0000000000000000e+02
-2.5000000000000000e-01 2.5000000000000000e-01
ITEM: ATOMS id type x y 
42464 2 -0.345855 92.4738 
42466 2 -0.954248 93.2674 
42469 2 -1.56264 94.061 
42470 2 -0.571136 94.1911 
42473 2 -2.17103 94.8546 
42474 2 -1.17953 94.9847 
42475 2 -0.188024 95.1148 
42463 2 0.262538 91.6802 
42465 2 0.64565 92.6039 
42467 2 0.0372569 93.3975 
42468 2 1.02876 93.5276 
42471 2 0.420369 94.3212 
42472 2 1.41187 94.4512 
42476 2 0.803481 95.2448 
42477 2 1.79499 95.3749 
ITEM: TIMESTEP
210000
ITEM: NUMBER OF ATOMS
15
ITEM: BOX BOUNDS ff fm pp
-4.1000000000000000e+01 4.1000000000000000e+01
0.0000000000000000e+00 2.0000000000000000e+02
-2.5000000000000000e-01 2.5000000000000000e-01
ITEM: ATOMS id type x y 
42464 2 -0.230152 87.9537 
42466 2 -0.892079 88.7032 
42469 2 -1.55401 89.4528 
42470 2 -0.573898 89.6512 
42473 2 -2.21593 90.2023 
42474 2 -1.23582 90.4008 
42475 2 -0.255717 90.5992 
42463 2 0.431775 87.2041 
42465 2 0.749956 88.1521 
42467 2 0.088029 88.9017 
42468 2 1.06814 89.1002 
42471 2 0.40621 89.8497 
42472 2 1.38632 90.0482 
42476 2 0.724391 90.7977 
42477 2 1.7045 90.9962 
ITEM: TIMESTEP
220000
ITEM: NUMBER OF ATOMS
15
ITEM: BOX BOUNDS ff fm pp
-4.1000000000000000e+01 4.1000000000000000e+01
0.0000000000000000e+00 2.0000000000000000e+02
-2.5000000000000000e-01 2.5000000000000000e-01
ITEM: ATOMS id type x y 
42464 2 -0.0619393 83.3436 
42466 2 -0.806125 84.0115 
42469 2 -1.55031 84.6794 
42473 2 -2.2945 85.3474 
42470 2 -0.599739 84.9899 
42474 2 -1.34392 85.6579 
42475 2 -0.393354 85.9684 
42463 2 0.682246 82.6756 
42465 2 0.888631 83.6541 
42467 2 0.144446 84.322 
42468 2 1.09502 84.6325 
42471 2 0.350831 85.3005 
42472 2 1.3014 85.611 
42476 2 0.557217 86.2789 
42477 2 1.50779 86.5894 
ITEM: TIMESTEP
230000
ITEM: NUMBER OF ATOMS
15
ITEM: BOX BOUNDS ff fm pp
-4.1000000000000000e+01 4.1000000000000000e+01
0.0000000000000000e+00 2.0000000000000000e+02
-2.5000000000000000e-01 2.5000000000000000e-01
ITEM: ATOMS id type x y 
42466 2 -0.714633 79.3111 
42469 2 -1.52052 79.9032 
42473 2 -2.3264 80.4952 
42470 2 -0.604829 80.3051 
42474 2 -1.41071 80.8971 
42475 2 -0.495026 81.299 
42463 2 0.897132 78.127 
42464 2 0.0912497 78.7191 
42465 2 1.00694 79.121 
42467 2 0.201053 79.713 
42468 2 1.11674 80.1149 
42471 2 0.310857 80.7069 
42472 2 1.22654 81.1088 
42476 2 0.420661 81.7009 
42477 2 1.33635 82.1028 
ITEM: TIMESTEP
240000
ITEM: NUMBER OF ATOMS
15
ITEM: BOX BOUNDS ff fm pp
-4.1000000000000000e+01 4.1000000000000000e+01
0.0000000000000000e+00 2.0000000000000000e+02
-2.5000000000000000e-01 2.5000000000000000e-01
ITEM: ATOMS id type x y 
42464 2 -0.034781 73.9094 
42466 2 -0.765381 74.5922 
42469 2 -1.49598 75.275 
42470 2 -0.539357 75.5663 
42473 2 -2.22658 75.9578 
42474 2 -1.26996 76.2491 
42475 2 -0.313334 76.5404 
42463 2 0.695819 73.2267 
42465 2 0.921843 74.2008 
42467 2 0.191243 74.8835 
42468 2 1.14787 75.1749 
42471 2 0.417267 75.8576 
42472 2 1.37389 76.149 
42476 2 0.64329 76.8317 
42477 2 1.59991 77.1231 
ITEM: TIMESTEP
250000
ITEM: NUMBER OF ATOMS
15
ITEM: BOX BOUNDS ff fm pp
-4.1000000000000000e+01 4.1000000000000000e+01
0.0000000000000000e+00 2.0000000000000000e+02
-2.5000000000000000e-01 2.5000000000000000e-01
ITEM: ATOMS id type x y 
42464 2 -0.216623 69.2848 
42466 2 -0.866077 70.0451 
42469 2 -1.51553 70.8055 
42470 2 -0.532279 70.9878 
42473 2 -2.16499 71.5659 
42474 2 -1.18173 71.7481 
42475 2 -0.198482 71.9304 
42463 2 0.432832 68.5244 
42465 2 0.76663 69.467 
42467 2 0.117175 70.2274 
42468 2 1.10043 70.4096 
42471 2 0.450973 71.17 
42472 2 1.43423 71.3523 
42476 2 0.784771 72.1126 
42477 2 1.76802 72.2949 
ITEM: TIMESTEP
260000
ITEM: NUMBER OF ATOMS
15
ITEM: BOX BOUNDS ff fm pp
-4.1000000000000000e+01 4.1000000000000000e+01
0.0000000000000000e+00 2.0000000000000000e+02
-2.5000000000000000e-01 2.5000000000000000e-01
ITEM: ATOMS id type x y 
42470 2 -0.549405 66.1166 
42464 2 -0.0170168 64.4684 
42466 2 -0.759004 65.1388 
42469 2 -1.50099 65.8092 
42473 2 -2.24298 66.4795 
42474 2 -1.29139 66.7869 
42475 2 -0.339806 67.0943 
42471 2 0.402181 66.4239 
42463 2 0.72497 63.798 
42465 2 0.934569 64.7758 
42467 2 0.192582 65.4462 
42468 2 1.14417 65.7536 
42472 2 1.35377 66.7313 
42476 2 0.611779 67.4017 
42477 2 1.56337 67.7091 
ITEM: TIMESTEP
270000
ITEM: NUMBER OF ATOMS
15
ITEM: BOX BOUNDS ff fm pp
-4.1000000000000000e+01 4.1000000000000000e+01
0.0000000000000000e+00 2.0000000000000000e+02
-2.5000000000000000e-01 2.5000000000000000e-01
ITEM: ATOMS id type x y 
42466 2 -0.558262 60.2503 
42469 2 -1.33745 60.877 
42470 2 -0.405039 61.2384 
42473 2 -2.11663 61.5038 
42474 2 -1.18422 61.8652 
42475 2 -0.251815 62.2266 
42463 2 1.00011 58.9967 
42464 2 0.220922 59.6235 
42465 2 1.15333 59.9849 
42467 2 0.374145 60.6117 
42468 2 1.30655 60.9731 
42471 2 0.527369 61.5998 
42472 2 1.45978 61.9613 
42476 2 0.680592 62.588 
42477 2 1.613 62.9494 
ITEM: TIMESTEP
280000
ITEM: NUMBER OF ATOMS
15
ITEM: BOX BOUNDS ff fm pp
-4.1000000000000000e+01 4.1000000000000000e+01
0.0000000000000000e+00 2.0000000000000000e+02
-2.5000000000000000e-01 2.5000000000000000e-01
ITEM: ATOMS id type x y 
42469 2 -1.00622 56.0171 
42466 2 -0.13405 55.528 
42473 2 -1.87838 56.5063 
42470 2 -0.14648 56.5279 
42474 2 -1.01865 57.017 
42475 2 -0.158911 57.5278 
42463 2 1.61028 54.5497 
42464 2 0.738118 55.0388 
42467 2 0.725687 56.0387 
42465 2 1.59785 55.5496 
42468 2 1.58542 56.5495 
42471 2 0.713256 57.0386 
42472 2 1.57299 57.5494 
42476 2 0.700825 58.0385 
42477 2 1.56056 58.5493 
ITEM: TIMESTEP
290000
ITEM: NUMBER OF ATOMS
15
ITEM: BOX BOUNDS ff fm pp
-4.1000000000000000e+01 4.1000000000000000e+01
0.0000000000000000e+00 2.0000000000000000e+02
-2.5000000000000000e-01 2.5000000000000000e-01
ITEM: ATOMS id type x y 
42469 2 -0.521217 50.9197 
42473 2 -1.43505 51.3258 
42474 2 -0.62646 51.9142 
42463 2 2.22027 49.7016 
42466 2 0.392611 50.5137 
42464 2 1.30644 50.1076 
42467 2 1.2012 51.1021 
42465 2 2.11503 50.696 
42470 2 0.287369 51.5081 
42468 2 2.00978 51.6904 
42471 2 1.09595 52.0965 
42475 2 0.182126 52.5025 
42472 2 1.90454 52.6849 
42476 2 0.990712 53.0909 
42477 2 1.7993 53.6793 
ITEM: TIMESTEP
300000
ITEM: NUMBER OF ATOMS
15
ITEM: BOX BOUNDS ff fm pp
-4.1000000000000000e+01 4.1000000000000000e+01
0.0000000000000000e+00 2.0000000000000000e+02
-2.5000000000000000e-01 2.5000000000000000e-01
ITEM: ATOMS id type x y 
42473 2 -0.859923 46.7996 
42474 2 -0.101959 47.4519 
42464 2 1.97169 45.8089 
42463 2 2.91556 45.4786 
42466 2 1.02782 46.1391 
42469 2 0.0839475 46.4694 
42467 2 1.78578 46.7914 
42465 2 2.72965 46.4612 
42470 2 0.841911 47.1217 
42468 2 2.54375 47.4437 
42475 2 0.656004 48.1042 
42471 2 1.59988 47.774 
42476 2 1.41397 48.7565 
42472 2 2.35784 48.4263 
42477 2 2.17193 49.4088 
ITEM: TIMESTEP
310000
ITEM: NUMBER OF ATOMS
15
ITEM: BOX BOUNDS ff fm pp
-4.1000000000000000e+01 4.1000000000000000e+01
0.0000000000000000e+00 2.0000000000000000e+02
-2.5000000000000000e-01 2.5000000000000000e-01
ITEM: ATOMS id type x y 
42463 2 3.86881 40.8984 
42466 2 1.97037 41.5275 
42464 2 2.91959 41.213 
42469 2 1.02116 41.8421 
42467 2 2.71741 42.1923 
42465 2 3.66663 41.8778 
42474 2 0.818978 42.8214 
42470 2 1.7682 42.5069 
42468 2 3.46446 42.8571 
42471 2 2.51524 43.1716 
42475 2 1.56602 43.4862 
42472 2 3.26228 43.8364 
42476 2 2.31306 44.151 
42477 2 3.0601 44.8158 
42473 2 0.0719368 42.1566 
ITEM: TIMESTEP
320000
ITEM: NUMBER OF ATOMS
15
ITEM: BOX BOUNDS ff fm pp
-4.1000000000000000e+01 4.1000000000000000e+01
0.0000000000000000e+00 2.0000000000000000e+02
-2.5000000000000000e-01 2.5000000000000000e-01
ITEM: ATOMS id type x y 
42464 2 4.20246 37.5555 
42463 2 5.17946 37.3424 
42469 2 2.24846 37.9818 
42466 2 3.22546 37.7686 
42473 2 1.27146 38.1949 
42470 2 2.92156 38.7213 
42467 2 3.89856 38.5082 
42465 2 4.87556 38.295 
42474 2 1.94456 38.9344 
42468 2 4.57166 39.2477 
42475 2 2.61766 39.674 
42471 2 3.59466 39.4609 
42476 2 3.29076 40.4135 
42472 2 4.26776 40.2004 
42477 2 3.96386 41.1531 
ITEM: TIMESTEP
330000
ITEM: NUMBER OF ATOMS
15
ITEM: BOX BOUNDS ff fm pp
-4.1000000000000000e+01 4.1000000000000000e+01
0.0000000000000000e+00 2.0000000000000000e+02
-2.5000000000000000e-01 2.5000000000000000e-01
ITEM: ATOMS id type x y 
42473 2 2.55173 35.0855 
42469 2 3.54489 34.969 
42466 2 4.53806 34.8525 
42464 2 5.53123 34.736 
42463 2 6.5244 34.6195 
42470 2 4.1424 35.7709 
42467 2 5.13557 35.6544 
42465 2 6.12874 35.5379 
42474 2 3.14923 35.8874 
42475 2 3.74674 36.6893 
42471 2 4.73991 36.5728 
42468 2 5.73307 36.4563 
42476 2 4.34425 37.4911 
42472 2 5.33741 37.3746 
42477 2 4.94175 38.293 
ITEM: TIMESTEP
340000
ITEM: NUMBER OF ATOMS
15
ITEM: BOX BOUNDS ff fm pp
-4.1000000000000000e+01 4.1000000000000000e+01
0.0000000000000000e+00 2.0000000000000000e+02
-2.5000000000000000e-01 2.5000000000000000e-01
ITEM: ATOMS id type x y 
42464 2 6.89111 32.8115 
42463 2 7.88674 32.7184 
42473 2 3.90422 33.0909 
42469 2 4.89985 32.9978 
42466 2 5.89548 32.9047 
42474 2 4.48271 33.9066 
42470 2 5.47835 33.8135 
42467 2 6.47398 33.7204 
42465 2 7.46961 33.6272 
42471 2 6.05684 34.6292 
42468 2 7.05247 34.536 
42475 2 5.06121 34.7223 
42476 2 5.6397 35.538 
42472 2 6.63534 35.4449 
42477 2 6.2182 36.3537 
ITEM: TIMESTEP
350000
ITEM: NUMBER OF ATOMS
15
ITEM: BOX BOUNDS ff fm pp
-4.1000000000000000e+01 4.1000000000000000e+01
0.0000000000000000e+00 2.0000000000000000e+02
-2.5000000000000000e-01 2.5000000000000000e-01
ITEM: ATOMS id type x y 
42469 2 6.29583 31.7354 
42466 2 7.29475 31.6895 
42464 2 8.29368 31.6437 
42463 2 9.29261 31.5979 
42473 2 5.2969 31.7812 
42474 2 5.83609 32.6234 
42470 2 6.83501 32.5776 
42467 2 7.83394 32.5317 
42465 2 8.83287 32.4859 
42475 2 6.37527 33.4656 
42471 2 7.3742 33.4198 
42468 2 8.37313 33.3739 
42476 2 6.91446 34.3078 
42472 2 7.91339 34.2619 
42477 2 7.45365 35.15 
ITEM: TIMESTEP
360000
ITEM: NUMBER OF ATOMS
15
ITEM: BOX BOUNDS ff fm pp
-4.1000000000000000e+01 4.1000000000000000e+01
0.0000000000000000e+00 2.0000000000000000e+02
-2.5000000000000000e-01 2.5000000000000000e-01
ITEM: ATOMS id type x y 
42473 2 6.50807 30.9769 
42469 2 7.50775 31.0016 
42466 2 8.50742 31.0262 
42464 2 9.50709 31.0509 
42463 2 10.5068 31.0756 
42474 2 6.98657 31.855 
42470 2 7.98625 31.8797 
42467 2 8.98592 31.9043 
42465 2 9.98559 31.929 
42475 2 7.46507 32.7331 
42471 2 8.46475 32.7578 
42468 2 9.46442 32.7824 
42476 2 7.94357 33.6112 
42472 2 8.94325 33.6358 
42477 2 8.42207 34.4893 
ITEM: TIMESTEP
370000
ITEM: NUMBER OF ATOMS
15
ITEM: BOX BOUNDS ff fm pp
-4.1000000000000000e+01 4.1000000000000000e+01
0.0000000000000000e+00 2.0000000000000000e+02
-2.5000000000000000e-01 2.5000000000000000e-01
ITEM: ATOMS id type x y 
42473 2 7.51282 30.4357 
42469 2 8.50364 30.5708 
42466 2 9.49446 30.7058 
42464 2 10.4853 30.8409 
42463 2 11.4761 30.9759 
42474 2 7.8913 31.3614 
42470 2 8.88212 31.4964 
42467 2 9.87294 31.6314 
42465 2 10.8638 31.7665 
42475 2 8.26978 32.287 
42471 2 9.2606 32.422 
42468 2 10.2514 32.5571 
42476 2 8.64826 33.2126 
42472 2 9.63908 33.3476 
42477 2 9.02674 34.1382 
ITEM: TIMESTEP
380000
ITEM: NUMBER OF ATOMS
15
ITEM: BOX BOUNDS ff fm pp
-4.1000000000000000e+01 4.1000000000000000e+01
0.0000000000000000e+00 2.0000000000000000e+02
-2.5000000000000000e-01 2.5000000000000000e-01
ITEM: ATOMS id type x y 
42473 2 8.27356 30.0282 
42469 2 9.23746 30.2944 
42466 2 10.2014 30.5606 
42474 2 8.525 30.9961 
42464 2 11.1653 30.8268 
42463 2 12.1291 31.093 
42470 2 9.48889 31.2622 
42467 2 10.4528 31.5284 
42465 2 11.4167 31.7946 
42475 2 8.77643 31.9639 
42471 2 9.74033 32.2301 
42476 2 9.02786 32.9318 
42468 2 10.7042 32.4963 
42472 2 9.99176 33.198 
42477 2 9.2793 33.8997 
ITEM: TIMESTEP
390000
ITEM: NUMBER OF ATOMS
15
ITEM: BOX BOUNDS ff fm pp
-4.1000000000000000e+01 4.1000000000000000e+01
0.0000000000000000e+00 2.0000000000000000e+02
-2.5000000000000000e-01 2.5000000000000000e-01
ITEM: ATOMS id type x y 
42473 2 8.79838 29.6918 
42469 2 9.7174 30.0859 
42466 2 10.6364 30.4801 
42474 2 8.91656 30.6847 
42470 2 9.83558 31.0789 
42464 2 11.5554 30.8742 
42475 2 9.03474 31.6777 
42467 2 10.7546 31.4731 
42463 2 12.4745 31.2684 
42471 2 9.95376 32.0719 
42465 2 11.6736 31.8672 
42476 2 9.15292 32.6707 
42468 2 10.8728 32.466 
42472 2 10.0719 33.0649 
42477 2 9.2711 33.6637 
ITEM: TIMESTEP
400000
ITEM: NUMBER OF ATOMS
15
ITEM: BOX BOUNDS ff fm pp
-4.1000000000000000e+01 4.1000000000000000e+01
0.0000000000000000e+00 2.0000000000000000e+02
-2.5000000000000000e-01 2.5000000000000000e-01
ITEM: ATOMS id type x y 
42473 2 9.09335 29.3685 
42469 2 9.96494 29.8587 
42474 2 9.10465 30.3684 
42466 2 10.8365 30.3489 
42470 2 9.97624 30.8586 
42464 2 11.7081 30.8391 
42475 2 9.11595 31.3684 
42467 2 10.8478 31.3488 
42463 2 12.5797 31.3292 
42476 2 9.12725 32.3683 
42471 2 9.98754 31.8586 
42468 2 10.8591 32.3487 
42465 2 11.7194 31.839 
42472 2 9.99884 32.8585 
42477 2 9.13855 33.3683 
ITEM: TIMESTEP
410000
ITEM: NUMBER OF ATOMS
15
ITEM: BOX BOUNDS ff fm pp
-4.1000000000000000e+01 4.1000000000000000e+01
0.0000000000000000e+00 2.0000000000000000e+02
-2.5000000000000000e-01 2.5000000000000000e-01
ITEM: ATOMS id type x y 
42473 2 9.16975 29.0251 
42469 2 10.0047 29.5755 
42474 2 9.11059 30.0234 
42470 2 9.94549 30.5737 
42466 2 10.8396 30.1258 
42475 2 9.05143 31.0216 
42467 2 10.7804 31.1241 
42464 2 11.6745 30.6762 
42471 2 9.88633 31.572 
42465 2 11.6153 31.6744 
42463 2 12.5094 31.2265 
42476 2 8.99227 32.0199 
42468 2 10.7212 32.1223 
42472 2 9.82717 32.5702 
42477 2 8.93311 33.0181 
ITEM: TIMESTEP
420000
ITEM: NUMBER OF ATOMS
15
ITEM: BOX BOUNDS ff fm pp
-4.1000000000000000e+01 4.1000000000000000e+01
0.0000000000000000e+00 2.0000000000000000e+02
-2.5000000000000000e-01 2.5000000000000000e-01
ITEM: ATOMS id type x y 
42473 2 9.07141 28.6583 
42469 2 9.87846 29.2488 
42474 2 8.9636 29.6525 
42466 2 10.6855 29.8392 
42470 2 9.77065 30.243 
42464 2 11.4926 30.4297 
42475 2 8.85579 30.6467 
42467 2 10.5777 30.8334 
42463 2 12.2996 31.0201 
42476 2 8.74798 31.6409 
42471 2 9.66284 31.2371 
42465 2 11.3847 31.4239 
42472 2 9.55503 32.2313 
42468 2 10.4699 31.8276 
42477 2 8.64017 32.635 
ITEM: TIMESTEP
430000
ITEM: NUMBER OF ATOMS
15
ITEM: BOX BOUNDS ff fm pp
-4.1000000000000000e+01 4.1000000000000000e+01
0.0000000000000000e+00 2.0000000000000000e+02
-2.5000000000000000e-01 2.5000000000000000e-01
ITEM: ATOMS id type x y 
42473 2 8.86641 28.3228 
42474 2 8.73631 29.3143 
42469 2 9.66 28.9312 
42470 2 9.5299 29.9227 
42466 2 10.4536 29.5396 
42475 2 8.60621 30.3058 
42467 2 10.3235 30.5311 
42464 2 11.2472 30.148 
42471 2 9.3998 30.9142 
42465 2 11.1171 31.1395 
42463 2 12.0408 30.7564 
42476 2 8.4761 31.2973 
42468 2 10.1934 31.5226 
42477 2 8.346 32.2888 
42472 2 9.26969 31.9057 
ITEM: TIMESTEP
440000
ITEM: NUMBER OF ATOMS
15
ITEM: BOX BOUNDS ff fm pp
-4.1000000000000000e+01 4.1000000000000000e+01
0.0000000000000000e+00 2.0000000000000000e+02
-2.5000000000000000e-01 2.5000000000000000e-01
ITEM: ATOMS id type x y 
42473 2 8.61389 28.0005 
42469 2 9.41064 28.6047 
42474 2 8.48895 28.9926 
42466 2 10.2074 29.209 
42475 2 8.36401 29.9848 
42470 2 9.2857 29.5969 
42464 2 11.0041 29.8133 
42471 2 9.16076 30.5891 
42467 2 10.0824 30.2012 
42463 2 11.8009 30.4176 
42476 2 8.23907 30.9769 
42468 2 9.9575 31.1933 
42465 2 10.8792 30.8055 
42472 2 9.03582 31.5812 
42477 2 8.11413 31.9691 
ITEM: TIMESTEP
450000
ITEM: NUMBER OF ATOMS
15
ITEM: BOX BOUNDS ff fm pp
-4.1000000000000000e+01 4.1000000000000000e+01
0.0000000000000000e+00 2.0000000000000000e+02
-2.5000000000000000e-01 2.5000000000000000e-01
ITEM: ATOMS id type x y 
42473 2 8.48739 27.7149 
42474 2 8.34824 28.7052 
42469 2 9.27539 28.3305 
42470 2 9.13624 29.3208 
42466 2 10.0634 28.9462 
42475 2 8.20908 29.6954 
42467 2 9.92423 29.9365 
42464 2 10.8514 29.5618 
42471 2 8.99708 30.3111 
42465 2 10.7122 30.5521 
42463 2 11.6394 30.1775 
42476 2 8.06993 30.6857 
42468 2 9.78508 30.9267 
42477 2 7.93078 31.676 
42472 2 8.85793 31.3014 
ITEM: TIMESTEP
460000
ITEM: NUMBER OF ATOMS
15
ITEM: BOX BOUNDS ff fm pp
-4.1000000000000000e+01 4.1000000000000000e+01
0.0000000000000000e+00 2.0000000000000000e+02
-2.5000000000000000e-01 2.5000000000000000e-01
ITEM: ATOMS id type x y 
42473 2 8.4206 27.5828 
42469 2 9.21485 28.1904 
42474 2 8.29158 28.5745 
42466 2 10.0091 28.7979 
42470 2 9.08583 29.182 
42464 2 10.8034 29.4055 
42475 2 8.16256 29.5661 
42467 2 9.88008 29.7896 
42463 2 11.5976 30.013 
42476 2 8.03354 30.5578 
42471 2 8.95681 30.1737 
42465 2 10.6743 30.3971 
42472 2 8.82779 31.1653 
42468 2 9.75107 30.7812 
42477 2 7.90452 31.5494 
ITEM: TIMESTEP
470000
ITEM: NUMBER OF ATOMS
15
ITEM: BOX BOUNDS ff fm pp
-4.1000000000000000e+01 4.1000000000000000e+01
0.0000000000000000e+00 2.0000000000000000e+02
-2.5000000000000000e-01 2.5000000000000000e-01
ITEM: ATOMS id type x y 
42473 2 8.46002 27.5353 
42469 2 9.24589 28.1536 
42474 2 8.31746 28.525 
42466 2 10.0318 28.772 
42470 2 9.10333 29.1434 
42464 2 10.8176 29.3903 
42475 2 8.1749 29.5148 
42467 2 9.88921 29.7617 
42463 2 11.6035 30.0087 
42476 2 8.03234 30.5046 
42471 2 8.96077 30.1332 
42465 2 10.6751 30.3801 
42472 2 8.81821 31.123 
42468 2 9.74665 30.7515 
42477 2 7.88978 31.4944 
ITEM: TIMESTEP
480000
ITEM: NUMBER OF ATOMS
15
ITEM: BOX BOUNDS ff fm pp
-4.1000000000000000e+01 4.1000000000000000e+01
0.0000000000000000e+00 2.0000000000000000e+02
-2.5000000000000000e-01 2.5000000000000000e-01
ITEM: ATOMS id type x y 
42473 2 8.44712 27.5645 
42469 2 9.23658 28.1783 
42474 2 8.31033 28.5551 
42466 2 10.026 28.7921 
42470 2 9.0998 29.1689 
42464 2 10.8155 29.4058 
42475 2 8.17354 29.5457 
42467 2 9.88926 29.7827 
42463 2 11.605 30.0196 
42476 2 8.03675 30.5363 
42471 2 8.96301 30.1595 
42465 2 10.6787 30.3964 
42472 2 8.82622 31.1501 
42468 2 9.75247 30.7733 
42477 2 7.89997 31.5269 
ITEM: TIMESTEP
490000
ITEM: NUMBER OF ATOMS
15
ITEM: BOX BOUNDS ff fm pp
-4.1000000000000000e+01 4.1000000000000000e+01
0.0000000000000000e+00 2.0000000000000000e+02
-2.5000000000000000e-01 2.5000000000000000e-01
ITEM: ATOMS id type x y 
42473 2 8.43761 27.5748 
42469 2 9.22502 28.1912 
42474 2 8.29752 28.565 
42466 2 10.0124 28.8076 
42470 2 9.08493 29.1813 