# LAMMPS data file written by OVITO Basic 3.5.4

42492 atoms

3 atom types
-41.0 41.0 xlo xhi
0.0 200.0 ylo yhi
-0.25 0.25 zlo zhi

Atoms  # sphere

42478 3 1 1.0 0 140 0.0 0
42479 3 1 1.0 -0.5 140.866 0.0 0 
42480 3 1 1.0 0.5 140.866 0.0 0 
42481 3 1 1.0 -1 141.732 0.0 0 
42482 3 1 1.0 0 141.732 0.0 0 
42483 3 1 1.0 1 141.732 0.0 0 
42484 3 1 1.0 -1.5 142.598 0.0 0 
42485 3 1 1.0 -0.5 142.598 0.0 0 
42486 3 1 1.0 0.5 142.598 0.0 0 
42487 3 1 1.0 1.5 142.598 0.0 0 
42488 3 1 1.0 -2 143.464 0.0 0 
42489 3 1 1.0 -1 143.464 0.0 0 
42490 3 1 1.0 0 143.464 0.0 0 
42491 3 1 1.0 1 143.464 0.0 0 
42492 3 1 1.0 2 143.464 0.0 0 
962 1 0.538695 0.0 -40.6553 0.268837 0.0
115 1 0.52319 0.0 -40.1245 0.260236 0.0
1064 1 0.519537 0.0 -39.6043 0.257702 0.0
523 1 0.485543 0.0 -39.0278 0.24263 0.0
751 1 0.514646 0.0 -38.528 0.255871 0.0
156 1 0.47004 0.0 -38.0381 0.232389 0.0
628 1 0.467029 0.0 -37.5486 0.232317 0.0
591 1 0.549929 0.0 -37.0429 0.273986 0.0
701 1 0.536655 0.0 -36.5013 0.267211 0.0
201 1 0.481535 0.0 -35.9951 0.239771 0.0
720 1 0.534914 0.0 -35.4897 0.265885 0.0
179 1 0.46105 0.0 -34.9961 0.229127 0.0
1171 1 0.531092 0.0 -34.5041 0.264352 0.0
396 1 0.526457 0.0 -33.979 0.261263 0.0
103 1 0.54182 0.0 -33.4478 0.268821 0.0
96 1 0.493524 0.0 -32.9329 0.246139 0.0
1028 1 0.491126 0.0 -32.4429 0.248594 0.0
29 1 0.538856 0.0 -31.9306 0.26776 0.0
258 1 0.532443 0.0 -31.3974 0.263567 0.0
4 1 0.515194 0.0 -30.8729 0.257562 0.0
1060 1 0.504289 0.0 -30.3609 0.251658 0.0
830 1 0.533089 0.0 -29.8428 0.264464 0.0
976 1 0.547335 0.0 -29.3043 0.273113 0.0
1069 1 0.499878 0.0 -28.782 0.26004 0.0
1108 1 0.524327 0.0 -28.271 0.260379 0.0
1119 1 0.472949 0.0 -27.7705 0.236443 0.0
377 1 0.462882 0.0 -27.3021 0.229726 0.0
64 1 0.484689 0.0 -26.8303 0.240181 0.0
178 1 0.507651 0.0 -26.3364 0.255636 0.0
296 1 0.538137 0.0 -25.8156 0.267136 0.0
471 1 0.486462 0.0 -25.306 0.242987 0.0
535 1 0.466274 0.0 -24.8319 0.234184 0.0
100 1 0.464311 0.0 -24.3688 0.230434 0.0
324 1 0.511798 0.0 -23.8834 0.255136 0.0
1033 1 0.547569 0.0 -23.356 0.270596 0.0
211 1 0.520191 0.0 -22.8233 0.258795 0.0
1110 1 0.486635 0.0 -22.3202 0.243263 0.0
88 1 0.495769 0.0 -21.8291 0.245204 0.0
70 1 0.460062 0.0 -21.345 0.23 0.0
599 1 0.522328 0.0 -20.8204 0.257818 0.0
597 1 0.493998 0.0 -20.303 0.24681 0.0
369 1 0.486802 0.0 -19.8125 0.243358 0.0
501 1 0.450031 0.0 -19.3218 0.224972 0.0
1175 1 0.48946 0.0 -18.8524 0.242132 0.0
110 1 0.52015 0.0 -18.3478 0.258784 0.0
280 1 0.474783 0.0 -17.8506 0.23736 0.0
1116 1 0.528148 0.0 -17.3496 0.262185 0.0
372 1 0.514998 0.0 -16.8277 0.255861 0.0
568 1 0.475401 0.0 -16.3344 0.237367 0.0
1085 1 0.500855 0.0 -15.8481 0.252017 0.0
911 1 0.476188 0.0 -15.3615 0.237268 0.0
1009 1 0.52082 0.0 -14.8655 0.259838 0.0
970 1 0.54182 0.0 -14.3363 0.270124 0.0
117 1 0.529362 0.0 -13.8029 0.263214 0.0
278 1 0.455475 0.0 -13.3129 0.227244 0.0
838 1 0.530819 0.0 -12.8225 0.26518 0.0
978 1 0.516015 0.0 -12.3001 0.257683 0.0
180 1 0.450793 0.0 -11.819 0.222933 0.0
1208 1 0.450739 0.0 -11.3707 0.231657 0.0
899 1 0.506943 0.0 -10.8946 0.251003 0.0
148 1 0.522245 0.0 -10.3846 0.278744 0.0
143 1 0.47185 0.0 -9.89275 0.234158 0.0
126 1 0.535574 0.0 -9.39375 0.266505 0.0
1148 1 0.465043 0.0 -8.89787 0.230915 0.0
711 1 0.52178 0.0 -8.40858 0.258537 0.0
1084 1 0.510589 0.0 -7.89824 0.301583 0.0
537 1 0.495566 0.0 -7.40218 0.24714 0.0
233 1 0.518135 0.0 -6.89942 0.25587 0.0
95 1 0.476907 0.0 -6.194 0.237393 0.0
640 1 0.534301 0.0 -5.68943 0.264881 0.0
945 1 0.470797 0.0 -5.18827 0.235091 0.0
803 1 0.499969 0.0 -4.70359 0.249602 0.0
27 1 0.479949 0.0 -4.17071 0.239942 0.0
519 1 0.477675 0.0 -3.66998 0.235731 0.0
942 1 0.482239 0.0 -3.19327 0.238979 0.0
1097 1 0.487874 0.0 -2.71169 0.240815 0.0
595 1 0.453139 0.0 -2.24613 0.225946 0.0
418 1 0.509371 0.0 -1.77119 0.265093 0.0
375 1 0.467279 0.0 -1.28899 0.227843 0.0
698 1 0.494651 0.0 -0.8109 0.241758 0.0
141 1 0.518737 0.0 -0.388047 0.509775 0.0
846 1 0.45476 0.0 -40.7748 0.750299 0.0
1 1 0.510691 0.0 -40.2947 0.746619 0.0
748 1 0.455296 0.0 -39.8157 0.695221 0.0
853 1 0.457936 0.0 -40.0233 1.14498 0.0
212 1 0.525219 0.0 -39.2919 0.673285 0.0
314 1 0.467909 0.0 -39.5675 1.08317 0.0
337 1 0.510083 0.0 -38.7781 0.700895 0.0
823 1 0.463025 0.0 -39.0467 1.10414 0.0
69 1 0.461406 0.0 -38.2956 0.683869 0.0
331 1 0.454005 0.0 -38.5356 1.11746 0.0
6 1 0.462078 0.0 -38.0784 1.09101 0.0
685 1 0.548863 0.0 -37.7935 0.675454 0.0
791 1 0.490716 0.0 -37.5885 1.14958 0.0
447 1 0.522227 0.0 -37.2677 0.758786 0.0
1121 1 0.51031 0.0 -36.7555 0.722841 0.0
348 1 0.457117 0.0 -36.2739 0.712652 0.0
876 1 0.519045 0.0 -35.7879 0.697066 0.0
12 1 0.494571 0.0 -36.0471 1.1307 0.0
165 1 0.457259 0.0 -35.3009 0.723377 0.0
1159 1 0.535572 0.0 -35.5355 1.1587 0.0
1143 1 0.540034 0.0 -35.0011 1.17985 0.0
343 1 0.521268 0.0 -34.8145 0.685516 0.0
1031 1 0.496309 0.0 -34.4942 1.08284 0.0
344 1 0.451333 0.0 -34.2369 0.676533 0.0
267 1 0.519721 0.0 -33.994 1.1593 0.0
453 1 0.519007 0.0 -33.7287 0.717368 0.0
719 1 0.495375 0.0 -33.4868 1.17469 0.0
908 1 0.527825 0.0 -33.2085 0.745538 0.0
318 1 0.533344 0.0 -32.6825 0.700647 0.0
229 1 0.491186 0.0 -32.9602 1.19031 0.0
1024 1 0.504312 0.0 -32.4629 1.16903 0.0
545 1 0.49093 0.0 -32.173 0.719917 0.0
1214 1 0.500269 0.0 -31.954 1.16323 0.0
364 1 0.543034 0.0 -31.6572 0.732427 0.0
714 1 0.523357 0.0 -31.3752 1.18145 0.0
989 1 0.45262 0.0 -31.1579 0.691415 0.0
1129 1 0.505565 0.0 -30.8748 1.07514 0.0
1088 1 0.46766 0.0 -30.605 0.671024 0.0
948 1 0.542695 0.0 -30.3663 1.18669 0.0
820 1 0.527647 0.0 -30.1045 0.722809 0.0
964 1 0.533562 0.0 -29.8302 1.18157 0.0
398 1 0.495969 0.0 -29.589 0.711328 0.0
1131 1 0.485581 0.0 -29.0256 0.706527 0.0
1173 1 0.536148 0.0 -29.2991 1.13754 0.0
617 1 0.492173 0.0 -28.5379 0.692134 0.0
1196 1 0.487678 0.0 -28.7892 1.13111 0.0
991 1 0.548973 0.0 -28.2729 1.13907 0.0
909 1 0.515861 0.0 -27.9854 0.6924 0.0
763 1 0.527029 0.0 -27.7366 1.14897 0.0
672 1 0.530646 0.0 -27.4635 0.697495 0.0
1103 1 0.53656 0.0 -27.2059 1.16356 0.0
157 1 0.546462 0.0 -26.6966 0.73515 0.0
104 1 0.519442 0.0 -26.1569 0.736743 0.0
1122 1 0.450607 0.0 -25.6719 0.737443 0.0
469 1 0.476758 0.0 -25.1829 0.708533 0.0
1694 1 0.45119 0.0 -24.9285 1.09655 0.0
1072 1 0.477489 0.0 -24.7062 0.688944 0.0
610 1 0.480334 0.0 -24.4608 1.12452 0.0
832 1 0.524218 0.0 -24.2054 0.694575 0.0
144 1 0.458491 0.0 -23.9599 1.12017 0.0
49 1 0.47429 0.0 -23.7086 0.727339 0.0
1112 1 0.473675 0.0 -23.4486 1.1823 0.0
457 1 0.470326 0.0 -23.2388 0.761317 0.0
972 1 0.546754 0.0 -22.9378 1.16609 0.0
1014 1 0.491383 0.0 -22.6346 0.726188 0.0
125 1 0.53155 0.0 -22.4014 1.17945 0.0
174 1 0.484933 0.0 -22.1261 0.688512 0.0
1225 1 0.525279 0.0 -21.8764 1.1605 0.0
257 1 0.521157 0.0 -21.6234 0.706538 0.0
434 1 0.488736 0.0 -21.3626 1.1389 0.0
555 1 0.53047 0.0 -21.0999 0.702237 0.0
25 1 0.506771 0.0 -20.8606 1.16097 0.0
271 1 0.511965 0.0 -20.5805 0.711548 0.0
1050 1 0.504819 0.0 -20.0728 0.689776 0.0
589 1 0.543009 0.0 -20.3329 1.17263 0.0
386 1 0.525857 0.0 -19.8047 1.12952 0.0
565 1 0.524762 0.0 -19.5324 0.664489 0.0
641 1 0.542201 0.0 -19.2759 1.15891 0.0
665 1 0.508363 0.0 -19.0027 0.714469 0.0
1189 1 0.496172 0.0 -18.7593 1.17203 0.0
1058 1 0.461508 0.0 -18.5199 0.716656 0.0
1127 1 0.515241 0.0 -18.2582 1.12655 0.0
728 1 0.476628 0.0 -18.0545 0.668841 0.0
953 1 0.536448 0.0 -17.5557 0.750393 0.0
639 1 0.477948 0.0 -17.2788 1.17308 0.0
436 1 0.532693 0.0 -17.0225 0.739702 0.0
712 1 0.500237 0.0 -16.5089 0.693633 0.0
551 1 0.486551 0.0 -16.0168 0.715252 0.0
335 1 0.465584 0.0 -15.8101 1.14334 0.0
483 1 0.461419 0.0 -15.5452 0.668536 0.0
17 1 0.531897 0.0 -15.3136 1.14351 0.0
604 1 0.469308 0.0 -15.058 0.714568 0.0
520 1 0.520091 0.0 -14.5652 0.748701 0.0
355 1 0.497054 0.0 -14.0578 0.708597 0.0
690 1 0.522403 0.0 -14.2675 1.17561 0.0
438 1 0.514665 0.0 -13.5424 0.712693 0.0
951 1 0.521847 0.0 -13.7475 1.18604 0.0
919 1 0.451245 0.0 -13.0621 0.706334 0.0
90 1 0.522323 0.0 -13.2259 1.16464 0.0
979 1 0.51636 0.0 -12.7073 1.19026 0.0
416 1 0.460855 0.0 -12.6087 0.711734 0.0
676 1 0.513281 0.0 -12.1273 0.765113 0.0
582 1 0.484601 0.0 -11.644 0.653581 0.0
31 1 0.462753 0.0 -11.3919 1.05077 0.0
805 1 0.463277 0.0 -11.1693 0.647719 0.0
774 1 0.463251 0.0 -10.9321 1.04886 0.0
101 1 0.454535 0.0 -10.6668 0.675918 0.0
921 1 0.476812 0.0 -10.469 1.10992 0.0
35 1 0.462354 0.0 -10.1952 0.73095 0.0
167 1 0.520187 0.0 -9.97916 1.18498 0.0
154 1 0.47827 0.0 -9.72844 0.756717 0.0
525 1 0.482179 0.0 -9.25272 0.75225 0.0
1086 1 0.467143 0.0 -8.78895 0.683307 0.0
59 1 0.457011 0.0 -8.95426 1.11477 0.0
327 1 0.533438 0.0 -8.30244 0.772049 0.0
1083 1 0.487986 0.0 -7.79778 0.789529 0.0
158 1 0.547627 0.0 -7.31465 0.959035 0.0
866 1 0.472676 0.0 -6.85893 0.745418 0.0
397 1 0.454459 0.0 -6.58598 1.11943 0.0
847 1 0.489449 0.0 -6.39029 0.677415 0.0
139 1 0.493812 0.0 -5.92175 0.799737 0.0
1212 1 0.512745 0.0 -5.43277 0.717858 0.0
467 1 0.548288 0.0 -4.93182 0.867722 0.0
485 1 0.546184 0.0 -4.42283 0.690175 0.0
166 1 0.525845 0.0 -3.89523 0.678488 0.0
345 1 0.46199 0.0 -3.67801 1.15388 0.0
658 1 0.53147 0.0 -3.37978 0.75885 0.0
266 1 0.451454 0.0 -3.07895 1.14229 0.0
971 1 0.511626 0.0 -2.86645 0.711174 0.0
625 1 0.515999 0.0 -2.55095 1.11303 0.0
700 1 0.454656 0.0 -2.39195 0.65461 0.0
1111 1 0.491438 0.0 -1.93752 0.765575 0.0
225 1 0.478491 0.0 -1.59266 1.13153 0.0
801 1 0.493467 0.0 -1.45997 0.669557 0.0
968 1 0.478586 0.0 -0.981019 0.692744 0.0
2220 1 0.468132 0.0 -0.795548 1.12046 0.0
1620 1 0.538532 0.0 -0.30591 1.02797 0.0
476 1 0.498454 0.0 -40.7423 1.22576 0.0
924 1 0.500902 0.0 -40.3308 1.50912 0.0
223 1 0.487253 0.0 -39.8423 1.58084 0.0
664 1 0.544926 0.0 -39.3226 1.52351 0.0
1076 1 0.492144 0.0 -38.7974 1.51146 0.0
285 1 0.523702 0.0 -38.2845 1.53686 0.0
209 1 0.490447 0.0 -37.7699 1.60169 0.0
1005 1 0.538618 0.0 -37.0876 1.25613 0.0
370 1 0.497665 0.0 -37.2936 1.72925 0.0
745 1 0.539583 0.0 -36.7764 1.6962 0.0
879 1 0.537863 0.0 -36.5547 1.20546 0.0
775 1 0.459045 0.0 -36.2828 1.62201 0.0
1047 1 0.454059 0.0 -35.8321 1.55168 0.0
65 1 0.46644 0.0 -35.2869 1.59244 0.0
725 1 0.460925 0.0 -34.7214 1.593 0.0
251 1 0.481934 0.0 -34.2516 1.58566 0.0
825 1 0.535732 0.0 -33.7443 1.62156 0.0
452 1 0.462507 0.0 -33.2342 1.58149 0.0
181 1 0.523066 0.0 -32.7462 1.65005 0.0
1134 1 0.531056 0.0 -32.2198 1.6244 0.0
219 1 0.538636 0.0 -31.6868 1.60735 0.0
142 1 0.500295 0.0 -31.115 1.62116 0.0
890 1 0.503506 0.0 -30.6142 1.64562 0.0
559 1 0.464918 0.0 -30.1175 1.62168 0.0
273 1 0.49055 0.0 -29.5297 1.59616 0.0
694 1 0.473497 0.0 -29.0414 1.5706 0.0
284 1 0.461676 0.0 -28.5665 1.5503 0.0
1065 1 0.505592 0.0 -28.0127 1.59567 0.0
1105 1 0.468909 0.0 -27.4889 1.57849 0.0
94 1 0.482773 0.0 -26.7039 1.24684 0.0
2 1 0.523971 0.0 -26.9998 1.65099 0.0
441 1 0.526802 0.0 -26.478 1.69686 0.0
277 1 0.503503 0.0 -26.2129 1.2565 0.0
1731 1 0.549709 0.0 -25.9415 1.71124 0.0
455 1 0.535221 0.0 -25.6965 1.22714 0.0
2196 1 0.545699 0.0 -25.241 1.51257 0.0
1179 1 0.513178 0.0 -24.7153 1.54893 0.0
1150 1 0.451005 0.0 -24.2359 1.53064 0.0
768 1 0.533598 0.0 -23.7494 1.58474 0.0
1608 1 0.545241 0.0 -23.2148 1.63353 0.0
2206 1 0.484404 0.0 -22.6933 1.61648 0.0
1193 1 0.455701 0.0 -22.1448 1.60104 0.0
374 1 0.45253 0.0 -21.6908 1.60845 0.0
2033 1 0.464989 0.0 -21.1261 1.5667 0.0
2282 1 0.480694 0.0 -20.6202 1.59119 0.0
947 1 0.45118 0.0 -20.0893 1.6053 0.0
1249 1 0.503223 0.0 -19.6124 1.6068 0.0
1420 1 0.5167 0.0 -19.1053 1.65675 0.0
1213 1 0.484375 0.0 -18.6055 1.66336 0.0
93 1 0.545824 0.0 -18.0922 1.6288 0.0
291 1 0.501414 0.0 -17.7626 1.22439 0.0
153 1 0.459077 0.0 -17.5863 1.67106 0.0
1093 1 0.54849 0.0 -17.0832 1.6445 0.0
162 1 0.515117 0.0 -16.7847 1.20554 0.0
481 1 0.508549 0.0 -16.559 1.68161 0.0
564 1 0.505313 0.0 -16.2793 1.25964 0.0
822 1 0.480075 0.0 -16.0675 1.70414 0.0
105 1 0.541474 0.0 -15.5667 1.61606 0.0
240 1 0.534485 0.0 -15.0405 1.71643 0.0
1049 1 0.536585 0.0 -14.7907 1.24358 0.0
642 1 0.46045 0.0 -14.5472 1.68016 0.0
547 1 0.500569 0.0 -14.0708 1.64711 0.0
827 1 0.52484 0.0 -13.5616 1.67286 0.0
390 1 0.519527 0.0 -13.0429 1.66401 0.0
15 1 0.535348 0.0 -12.5198 1.69531 0.0
232 1 0.542178 0.0 -12.1674 1.28976 0.0
79 1 0.482684 0.0 -11.6743 1.42613 0.0
132 1 0.527934 0.0 -11.1747 1.49351 0.0
1168 1 0.505543 0.0 -10.6646 1.55747 0.0
150 1 0.47852 0.0 -10.1826 1.63871 0.0
571 1 0.475802 0.0 -9.70833 1.66369 0.0
1145 1 0.545652 0.0 -9.44941 1.22476 0.0
851 1 0.483678 0.0 -9.23193 1.69054 0.0
729 1 0.481162 0.0 -8.75221 1.70224 0.0
147 1 0.544676 0.0 -8.45882 1.28526 0.0
860 1 0.505509 0.0 -8.15396 1.7126 0.0
716 1 0.484506 0.0 -7.94766 1.25141 0.0
1210 1 0.461848 0.0 -7.50829 1.42054 0.0
1102 1 0.456227 0.0 -6.99683 1.34429 0.0
488 1 0.5151 0.0 -6.665 1.69547 0.0
275 1 0.503254 0.0 -6.22916 1.43798 0.0
637 1 0.475514 0.0 -5.77714 1.25989 0.0
1203 1 0.451127 0.0 -5.48252 1.67026 0.0
1174 1 0.496035 0.0 -5.29486 1.23793 0.0
252 1 0.524074 0.0 -4.97369 1.63154 0.0
764 1 0.452221 0.0 -4.64319 1.27356 0.0
975 1 0.539616 0.0 -4.41784 1.71331 0.0
185 1 0.520201 0.0 -4.15959 1.24199 0.0
340 1 0.531231 0.0 -3.88486 1.68972 0.0
581 1 0.546641 0.0 -3.36651 1.54855 0.0
1071 1 0.500637 0.0 -2.82264 1.53855 0.0
68 1 0.520188 0.0 -2.09257 1.74639 0.0
941 1 0.495347 0.0 -2.06445 1.24058 0.0
987 1 0.47501 0.0 -1.61799 1.60228 0.0
1559 1 0.526275 0.0 -0.764057 1.61137 0.0
1357 1 0.493038 0.0 -0.264741 1.53364 0.0
835 1 0.53324 0.0 -40.7348 1.82738 0.0
1164 1 0.471426 0.0 -40.7657 2.32675 0.0
1202 1 0.506697 0.0 -40.1676 1.9857 0.0
74 1 0.481243 0.0 -39.8425 2.35754 0.0
1019 1 0.475756 0.0 -39.563 1.97217 0.0
659 1 0.490989 0.0 -39.3396 2.40079 0.0
213 1 0.498153 0.0 -39.078 1.98111 0.0
254 1 0.469873 0.0 -38.8185 2.38673 0.0
1227 1 0.510691 0.0 -38.5756 1.96242 0.0
14 1 0.45332 0.0 -38.3596 2.39351 0.0
1034 1 0.52153 0.0 -38.0631 2.00995 0.0
120 1 0.495857 0.0 -37.5716 2.13837 0.0
123 1 0.466856 0.0 -37.0924 2.1664 0.0
200 1 0.520566 0.0 -36.6014 2.19609 0.0
561 1 0.498641 0.0 -35.9884 1.99848 0.0
943 1 0.481029 0.0 -35.4999 2.01434 0.0
662 1 0.517443 0.0 -35.002 1.99215 0.0
400 1 0.52209 0.0 -34.4844 2.02766 0.0
826 1 0.464972 0.0 -33.9925 2.05535 0.0
844 1 0.535108 0.0 -33.4223 2.04655 0.0
1183 1 0.451714 0.0 -32.9375 2.12209 0.0
268 1 0.513308 0.0 -32.4591 2.08669 0.0
980 1 0.547354 0.0 -31.9315 2.08955 0.0
378 1 0.53064 0.0 -31.395 2.05279 0.0
873 1 0.498296 0.0 -30.8823 2.06734 0.0
106 1 0.472849 0.0 -30.3613 2.06229 0.0
956 1 0.543997 0.0 -29.838 2.03835 0.0
458 1 0.480666 0.0 -29.3271 2.05761 0.0
227 1 0.521322 0.0 -28.8286 2.01927 0.0
435 1 0.471741 0.0 -28.337 1.95967 0.0
1538 1 0.456004 0.0 -28.0429 2.31726 0.0
459 1 0.460081 0.0 -27.7212 1.97853 0.0
1052 1 0.458944 0.0 -27.2644 2.06266 0.0
1169 1 0.498623 0.0 -26.7802 2.1106 0.0
579 1 0.496619 0.0 -26.2713 2.16345 0.0
2078 1 0.455005 0.0 -25.8159 2.2963 0.0
1600 1 0.484089 0.0 -25.4906 1.96083 0.0
293 1 0.51729 0.0 -24.9929 1.98105 0.0
474 1 0.488854 0.0 -25.2757 2.39639 0.0
550 1 0.494554 0.0 -24.4834 1.99615 0.0
2374 1 0.50969 0.0 -23.9841 2.04853 0.0
892 1 0.461492 0.0 -23.4726 2.06523 0.0
2211 1 0.488253 0.0 -22.9334 2.06369 0.0
2036 1 0.544182 0.0 -22.4144 2.04492 0.0
1819 1 0.492908 0.0 -21.8995 2.03039 0.0
54 1 0.541095 0.0 -21.3862 1.99616 0.0
1198 1 0.531841 0.0 -20.8549 2.03508 0.0
108 1 0.502838 0.0 -20.3384 2.01156 0.0
236 1 0.485398 0.0 -19.8448 2.04285 0.0
379 1 0.488502 0.0 -19.3567 2.09029 0.0
1847 1 0.51263 0.0 -18.8566 2.10422 0.0
726 1 0.514016 0.0 -18.3456 2.09118 0.0
935 1 0.489849 0.0 -17.846 2.09341 0.0
448 1 0.507478 0.0 -17.3498 2.09741 0.0
163 1 0.492639 0.0 -16.837 2.10311 0.0
317 1 0.515475 0.0 -16.3343 2.13958 0.0
109 1 0.477996 0.0 -15.8391 2.13013 0.0
593 1 0.482904 0.0 -15.3604 2.10989 0.0
538 1 0.500623 0.0 -14.8035 2.17606 0.0
587 1 0.460926 0.0 -14.3313 2.08862 0.0
391 1 0.538708 0.0 -13.8336 2.1281 0.0
39 1 0.528724 0.0 -13.3003 2.12862 0.0
1124 1 0.489117 0.0 -12.792 2.12898 0.0
1199 1 0.540906 0.0 -12.2918 2.24893 0.0
420 1 0.526573 0.0 -12.0033 1.80431 0.0
58 1 0.486778 0.0 -11.7858 2.33507 0.0
1017 1 0.538099 0.0 -11.4872 1.92185 0.0
287 1 0.507794 0.0 -11.2525 2.39575 0.0
1075 1 0.520661 0.0 -10.9628 1.97168 0.0
423 1 0.479793 0.0 -10.4656 2.02494 0.0
880 1 0.499357 0.0 -9.96698 2.07558 0.0
961 1 0.458314 0.0 -9.48829 2.08559 0.0
663 1 0.454774 0.0 -9.00029 2.09717 0.0
626 1 0.495049 0.0 -8.47854 2.10422 0.0
562 1 0.489672 0.0 -8.01059 2.24988 0.0
922 1 0.524359 0.0 -7.66808 1.88269 0.0
1207 1 0.50984 0.0 -7.15764 1.82368 0.0
782 1 0.497829 0.0 -7.09607 2.32151 0.0
99 1 0.502672 0.0 -6.60717 2.21024 0.0
395 1 0.451496 0.0 -6.23617 1.91321 0.0
707 1 0.508038 0.0 -6.12884 2.38593 0.0
21 1 0.48939 0.0 -5.78326 2.0289 0.0
9 1 0.521312 0.0 -5.28784 2.1154 0.0
510 1 0.524436 0.0 -4.76777 2.11147 0.0
413 1 0.521729 0.0 -4.26017 2.22862 0.0
932 1 0.471702 0.0 -3.52332 2.03547 0.0
1194 1 0.460505 0.0 -3.06598 1.95023 0.0
408 1 0.49083 0.0 -2.84575 2.36838 0.0
365 1 0.510151 0.0 -2.55746 1.96376 0.0
1714 1 0.45747 0.0 -2.26211 2.34272 0.0
1750 1 0.501006 0.0 -1.69716 2.0798 0.0
3216 1 0.492527 0.0 -1.20885 1.85394 0.0
3396 1 0.500583 0.0 -1.19596 2.34687 0.0
3207 1 0.464585 0.0 -0.786457 2.10022 0.0
1157 1 0.530449 0.0 -40.7369 2.82523 0.0
1192 1 0.517937 0.0 -40.3121 2.52143 0.0
881 1 0.494108 0.0 -39.9195 2.83828 0.0
38 1 0.49303 0.0 -39.0082 2.82574 0.0
46 1 0.497709 0.0 -38.5156 2.84004 0.0
689 1 0.468618 0.0 -37.9095 2.47884 0.0
621 1 0.47179 0.0 -37.4589 2.60862 0.0
468 1 0.480178 0.0 -37.8024 2.93811 0.0
297 1 0.522238 0.0 -36.9646 2.64477 0.0
62 1 0.533061 0.0 -36.4706 2.82611 0.0
673 1 0.454552 0.0 -36.1773 2.43255 0.0
410 1 0.491962 0.0 -35.7067 2.45348 0.0
484 1 0.455784 0.0 -35.9776 2.84043 0.0
995 1 0.467404 0.0 -35.23 2.42649 0.0
632 1 0.463145 0.0 -35.4832 2.87456 0.0
1906 1 0.504487 0.0 -34.9993 2.85217 0.0
893 1 0.463355 0.0 -34.7665 2.4293 0.0
1165 1 0.452747 0.0 -34.5228 2.81565 0.0
161 1 0.455457 0.0 -34.2372 2.44744 0.0
1821 1 0.544568 0.0 -34.0334 2.90228 0.0
877 1 0.516341 0.0 -33.7309 2.46936 0.0
2135 1 0.469183 0.0 -33.4711 2.888 0.0
208 1 0.465434 0.0 -33.2028 2.49607 0.0
1099 1 0.501979 0.0 -32.6952 2.53383 0.0
828 1 0.498022 0.0 -32.9899 2.9355 0.0
210 1 0.451382 0.0 -32.2134 2.50173 0.0
2094 1 0.490109 0.0 -32.4438 2.96073 0.0
769 1 0.541098 0.0 -31.9309 2.91538 0.0
1161 1 0.485724 0.0 -31.6262 2.50362 0.0
2130 1 0.510011 0.0 -31.4064 2.94754 0.0
449 1 0.487895 0.0 -31.1375 2.49021 0.0
703 1 0.545171 0.0 -30.8777 2.93477 0.0
504 1 0.496818 0.0 -30.6142 2.48484 0.0
2344 1 0.482559 0.0 -30.3666 2.90597 0.0
1090 1 0.504829 0.0 -30.1141 2.48319 0.0
373 1 0.465536 0.0 -29.8942 2.915 0.0
533 1 0.530135 0.0 -29.5985 2.51648 0.0
742 1 0.545348 0.0 -29.0632 2.49737 0.0
261 1 0.475908 0.0 -29.4304 2.98924 0.0
966 1 0.543801 0.0 -28.5219 2.45396 0.0
2366 1 0.513456 0.0 -28.4339 2.97751 0.0
1091 1 0.518137 0.0 -27.9529 2.79878 0.0
1244 1 0.526826 0.0 -27.5708 2.44604 0.0
1575 1 0.466672 0.0 -27.3577 2.89201 0.0
253 1 0.491281 0.0 -27.068 2.5125 0.0
234 1 0.452025 0.0 -26.9042 2.95705 0.0
404 1 0.516081 0.0 -26.57 2.57028 0.0
1784 1 0.503354 0.0 -26.0782 2.69529 0.0
709 1 0.53117 0.0 -25.5755 2.80784 0.0
1818 1 0.52743 0.0 -25.0493 2.8507 0.0
1793 1 0.51651 0.0 -24.7425 2.4302 0.0
2261 1 0.513945 0.0 -24.534 2.9221 0.0
2283 1 0.525369 0.0 -24.2292 2.50223 0.0
515 1 0.498898 0.0 -23.7183 2.47723 0.0
1530 1 0.533895 0.0 -24.0054 2.97931 0.0
1407 1 0.530426 0.0 -23.4792 2.93239 0.0
1444 1 0.503742 0.0 -23.214 2.47266 0.0
2193 1 0.51282 0.0 -22.9617 2.91766 0.0
2181 1 0.509035 0.0 -22.6849 2.49281 0.0
164 1 0.510196 0.0 -22.43 2.93104 0.0
1930 1 0.470326 0.0 -22.1958 2.50194 0.0
1603 1 0.464554 0.0 -21.9426 2.93647 0.0
2028 1 0.538721 0.0 -21.6927 2.50158 0.0
1295 1 0.530432 0.0 -21.4025 2.95209 0.0
2131 1 0.541731 0.0 -21.1545 2.48194 0.0
1382 1 0.506037 0.0 -20.8849 2.94651 0.0
1398 1 0.515731 0.0 -20.6304 2.50405 0.0
1952 1 0.485831 0.0 -20.3894 2.94029 0.0
1666 1 0.532966 0.0 -20.1114 2.47646 0.0
1300 1 0.513463 0.0 -19.8848 2.94575 0.0
171 1 0.46748 0.0 -19.6152 2.49047 0.0
741 1 0.511852 0.0 -19.3777 3.00275 0.0
1994 1 0.53095 0.0 -19.1232 2.55059 0.0
1264 1 0.498136 0.0 -18.8733 3.00152 0.0
1628 1 0.544712 0.0 -18.589 2.55835 0.0
1226 1 0.466202 0.0 -18.087 2.50586 0.0
288 1 0.494692 0.0 -17.6085 2.5255 0.0
563 1 0.509108 0.0 -17.9071 2.96107 0.0
686 1 0.501978 0.0 -17.1069 2.5376 0.0
403 1 0.52421 0.0 -17.3929 2.98521 0.0
1057 1 0.515367 0.0 -16.8763 2.98903 0.0
674 1 0.494031 0.0 -16.6102 2.56099 0.0
789 1 0.518592 0.0 -16.3622 3.00158 0.0
963 1 0.469554 0.0 -16.1103 2.57693 0.0
2136 1 0.524935 0.0 -15.8433 2.99509 0.0
1040 1 0.506841 0.0 -15.5843 2.55046 0.0
309 1 0.473796 0.0 -15.0949 2.56598 0.0
1153 1 0.4784 0.0 -14.6248 2.63843 0.0
1037 1 0.533502 0.0 -14.1231 2.57768 0.0
798 1 0.484333 0.0 -13.6018 2.58365 0.0
645 1 0.486451 0.0 -13.3513 2.99895 0.0
281 1 0.454601 0.0 -13.1276 2.58748 0.0
214 1 0.485422 0.0 -12.6599 2.60121 0.0
1232 1 0.537911 0.0 -12.087 2.74639 0.0
451 1 0.53217 0.0 -11.5581 2.81373 0.0
1006 1 0.494277 0.0 -11.0413 2.85007 0.0
245 1 0.519623 0.0 -10.7427 2.44042 0.0
1156 1 0.548876 0.0 -10.5166 2.9333 0.0
361 1 0.498899 0.0 -10.2389 2.49212 0.0
813 1 0.510227 0.0 -9.98888 2.94731 0.0
57 1 0.478585 0.0 -9.75386 2.51461 0.0
299 1 0.455596 0.0 -9.50604 2.94712 0.0
1125 1 0.536032 0.0 -9.25049 2.52232 0.0
623 1 0.531604 0.0 -8.72119 2.55459 0.0
708 1 0.525726 0.0 -9.00445 2.99755 0.0
544 1 0.486011 0.0 -8.23178 2.67977 0.0
702 1 0.491872 0.0 -7.84146 2.96859 0.0
601 1 0.545236 0.0 -7.574 2.52608 0.0
620 1 0.480157 0.0 -7.17808 2.90372 0.0
874 1 0.476699 0.0 -6.76167 2.673 0.0
1287 1 0.549449 0.0 -6.29704 2.88502 0.0
107 1 0.524121 0.0 -5.62893 2.50999 0.0
872 1 0.464865 0.0 -5.09526 2.56926 0.0
753 1 0.472095 0.0 -4.62715 2.58689 0.0
193 1 0.504677 0.0 -3.79491 2.44003 0.0
602 1 0.51697 0.0 -4.17357 2.78092 0.0
810 1 0.523545 0.0 -3.54389 2.88806 0.0
788 1 0.464557 0.0 -3.31297 2.45298 0.0
511 1 0.469167 0.0 -3.01331 2.81507 0.0
1533 1 0.523859 0.0 -2.52352 2.75634 0.0
1710 1 0.486452 0.0 -1.84112 2.54794 0.0
2588 1 0.479545 0.0 -1.41959 2.77651 0.0
3330 1 0.476444 0.0 -0.74781 2.56444 0.0
42466 2 1.0 0.0 -0.158962 3.00342 0.0
1166 1 0.533271 0.0 -40.7356 3.35574 0.0
1045 1 0.455813 0.0 -40.3217 3.08806 0.0
654 1 0.521727 0.0 -39.9096 3.34685 0.0
443 1 0.541581 0.0 -39.459 3.07113 0.0
1008 1 0.53099 0.0 -39.3596 3.60331 0.0
967 1 0.490412 0.0 -38.9429 3.31089 0.0
246 1 0.543253 0.0 -38.2024 3.25336 0.0
1172 1 0.450225 0.0 -37.729 3.39679 0.0
915 1 0.540434 0.0 -37.325 3.11229 0.0
301 1 0.548793 0.0 -36.8011 3.25107 0.0
1055 1 0.499307 0.0 -36.2817 3.30526 0.0
32 1 0.526731 0.0 -35.7707 3.28378 0.0
2189 1 0.537668 0.0 -35.2408 3.31136 0.0
1191 1 0.479002 0.0 -34.711 3.25039 0.0
2061 1 0.469297 0.0 -34.2495 3.35865 0.0
1453 1 0.504656 0.0 -33.7631 3.34912 0.0
1601 1 0.532389 0.0 -33.2477 3.37954 0.0
1605 1 0.480434 0.0 -32.7114 3.36444 0.0
1508 1 0.476109 0.0 -32.1663 3.36517 0.0
2040 1 0.467005 0.0 -31.6797 3.3524 0.0
2180 1 0.542063 0.0 -31.1492 3.40351 0.0
757 1 0.453556 0.0 -30.631 3.36886 0.0
1311 1 0.548085 0.0 -30.1303 3.36208 0.0
18 1 0.463126 0.0 -29.6287 3.41397 0.0
1399 1 0.516598 0.0 -29.1442 3.47567 0.0
385 1 0.507109 0.0 -28.941 3.00777 0.0
598 1 0.50966 0.0 -28.6336 3.44709 0.0
1178 1 0.461634 0.0 -28.1526 3.38819 0.0
1940 1 0.503211 0.0 -27.6952 3.23827 0.0
462 1 0.482435 0.0 -27.211 3.3409 0.0
1459 1 0.469457 0.0 -26.7504 3.45157 0.0
1520 1 0.527701 0.0 -26.429 3.07091 0.0
1929 1 0.461211 0.0 -26.2967 3.54448 0.0
1293 1 0.549448 0.0 -25.8882 3.24783 0.0
1803 1 0.501914 0.0 -25.3487 3.27016 0.0
1525 1 0.511349 0.0 -24.8469 3.32726 0.0
1523 1 0.547592 0.0 -24.3263 3.41056 0.0
1902 1 0.457295 0.0 -23.716 3.38154 0.0
1255 1 0.464471 0.0 -23.2552 3.37647 0.0
1176 1 0.543103 0.0 -22.752 3.39845 0.0
1619 1 0.534406 0.0 -22.2149 3.40398 0.0
1462 1 0.515611 0.0 -21.6945 3.38028 0.0
1468 1 0.456832 0.0 -21.1277 3.36217 0.0
2293 1 0.455594 0.0 -20.6453 3.36333 0.0
1752 1 0.521359 0.0 -20.1574 3.38445 0.0
2079 1 0.490253 0.0 -19.642 3.42608 0.0
1661 1 0.479395 0.0 -19.1315 3.43012 0.0
1921 1 0.510315 0.0 -18.64 3.46092 0.0
1182 1 0.469339 0.0 -18.3906 3.02132 0.0
1551 1 0.536667 0.0 -18.1198 3.4416 0.0
2347 1 0.486639 0.0 -17.611 3.43942 0.0
2077 1 0.457689 0.0 -17.1421 3.40983 0.0
1163 1 0.549116 0.0 -16.6442 3.46553 0.0
37 1 0.546372 0.0 -16.0991 3.46379 0.0
1077 1 0.52829 0.0 -15.3203 3.01636 0.0
2041 1 0.514243 0.0 -15.5713 3.49769 0.0
399 1 0.505824 0.0 -15.0637 3.49266 0.0
75 1 0.470939 0.0 -14.8266 3.0676 0.0
889 1 0.506617 0.0 -14.559 3.49322 0.0
121 1 0.495358 0.0 -14.3482 3.03886 0.0
749 1 0.50683 0.0 -14.0536 3.49357 0.0
531 1 0.514856 0.0 -13.8469 3.02839 0.0
576 1 0.462616 0.0 -13.5729 3.43757 0.0
940 1 0.514956 0.0 -12.8575 3.05774 0.0
204 1 0.543243 0.0 -13.0801 3.53449 0.0
959 1 0.474576 0.0 -12.3764 3.15773 0.0
1188 1 0.538145 0.0 -11.8791 3.24095 0.0
779 1 0.544641 0.0 -11.3472 3.32702 0.0
603 1 0.51795 0.0 -10.8206 3.36797 0.0
456 1 0.503962 0.0 -10.3134 3.4172 0.0
518 1 0.536609 0.0 -9.79556 3.43241 0.0
974 1 0.536588 0.0 -9.26255 3.4585 0.0
883 1 0.463741 0.0 -8.76805 3.52152 0.0
723 1 0.542 0.0 -8.43003 3.15187 0.0
3 1 0.523906 0.0 -7.98524 3.45291 0.0
812 1 0.479966 0.0 -7.47199 3.28031 0.0
2026 1 0.546397 0.0 -7.05714 3.58014 0.0
2278 1 0.503611 0.0 -6.74251 3.16232 0.0
882 1 0.506064 0.0 -6.39123 3.52383 0.0
1195 1 0.490427 0.0 -5.59012 3.01386 0.0
934 1 0.455558 0.0 -5.98221 3.2736 0.0
605 1 0.474457 0.0 -5.11102 3.04173 0.0
606 1 0.543034 0.0 -5.38533 3.48811 0.0
89 1 0.4555 0.0 -4.88863 3.49957 0.0
558 1 0.540011 0.0 -4.60862 3.09038 0.0
635 1 0.5367 0.0 -4.11781 3.30359 0.0
491 1 0.490832 0.0 -3.61483 3.38854 0.0
134 1 0.464057 0.0 -3.16279 3.25269 0.0
44 1 0.469936 0.0 -2.69892 3.2193 0.0
2600 1 0.53448 0.0 -2.061 3.00524 0.0
1414 1 0.461462 0.0 -2.2935 3.44573 0.0
2726 1 0.528375 0.0 -1.59114 3.2435 0.0
3808 1 0.514047 0.0 -0.925064 3.02499 0.0
5408 1 0.459988 0.0 -1.11849 3.47002 0.0
460 1 0.45329 0.0 -40.7734 3.84753 0.0
783 1 0.454213 0.0 -40.3165 3.61277 0.0
754 1 0.515424 0.0 -40.2906 4.0949 0.0
242 1 0.535061 0.0 -39.8219 3.86539 0.0
981 1 0.545704 0.0 -39.3656 4.15032 0.0
796 1 0.461675 0.0 -38.9461 3.87728 0.0
463 1 0.477579 0.0 -38.5644 3.60924 0.0
878 1 0.546555 0.0 -38.5003 4.11603 0.0
19 1 0.48326 0.0 -38.1094 3.75709 0.0
1965 1 0.508089 0.0 -37.6274 3.86322 0.0
509 1 0.548947 0.0 -37.1316 3.68725 0.0
529 1 0.543296 0.0 -36.5916 3.75397 0.0
2084 1 0.516544 0.0 -36.0639 3.76201 0.0
2007 1 0.496273 0.0 -35.813 4.2008 0.0
1289 1 0.541385 0.0 -35.5374 3.76274 0.0
1426 1 0.528545 0.0 -35.0059 3.78683 0.0
1270 1 0.519501 0.0 -34.4847 3.79118 0.0
1450 1 0.534745 0.0 -33.9607 3.82756 0.0
669 1 0.456521 0.0 -33.4651 3.82357 0.0
1933 1 0.52394 0.0 -32.9435 3.80875 0.0
184 1 0.498302 0.0 -32.4356 3.77008 0.0
1275 1 0.475139 0.0 -31.9507 3.79612 0.0
2259 1 0.464085 0.0 -31.4826 3.77733 0.0
1631 1 0.482767 0.0 -31.6932 4.19965 0.0
1387 1 0.485587 0.0 -30.8513 3.81921 0.0
1487 1 0.474033 0.0 -31.2039 4.15294 0.0
1810 1 0.493232 0.0 -30.3528 3.83028 0.0
2322 1 0.517086 0.0 -29.8476 3.85182 0.0
1804 1 0.487718 0.0 -29.3503 3.9313 0.0
2052 1 0.541083 0.0 -28.8357 3.93195 0.0
1543 1 0.484302 0.0 -28.3208 3.8313 0.0
1013 1 0.499516 0.0 -27.8994 4.08304 0.0
1842 1 0.526975 0.0 -27.5338 3.72588 0.0
1599 1 0.48761 0.0 -27.3395 4.19276 0.0
1617 1 0.468886 0.0 -27.0444 3.81675 0.0
1944 1 0.457337 0.0 -26.5887 3.89886 0.0
2058 1 0.541165 0.0 -26.014 3.95414 0.0
1671 1 0.528652 0.0 -25.5208 3.75457 0.0
2143 1 0.514168 0.0 -25.0052 3.81267 0.0
903 1 0.461009 0.0 -24.5237 3.87191 0.0
1665 1 0.53064 0.0 -24.027 3.85879 0.0
30 1 0.46205 0.0 -23.5319 3.80268 0.0
1570 1 0.507419 0.0 -23.048 3.83085 0.0
1644 1 0.52998 0.0 -22.4829 3.85944 0.0
1811 1 0.496126 0.0 -21.9394 3.83934 0.0
1891 1 0.543057 0.0 -21.42 3.82842 0.0
1591 1 0.469523 0.0 -20.9168 3.85539 0.0
1323 1 0.505877 0.0 -20.4333 3.81646 0.0
2240 1 0.526803 0.0 -19.9203 3.84927 0.0
2003 1 0.492063 0.0 -19.3745 3.84905 0.0
2191 1 0.470362 0.0 -18.8865 3.88261 0.0
1864 1 0.467917 0.0 -18.3684 3.87706 0.0
192 1 0.542481 0.0 -17.8401 3.89979 0.0
2210 1 0.470844 0.0 -17.335 3.91191 0.0
824 1 0.452746 0.0 -16.8748 3.90962 0.0
848 1 0.539127 0.0 -16.3813 3.93977 0.0
2227 1 0.52028 0.0 -15.8484 3.93243 0.0
1927 1 0.518872 0.0 -15.334 3.99363 0.0
1059 1 0.516571 0.0 -14.8206 3.94227 0.0
2060 1 0.514785 0.0 -14.3066 3.93594 0.0
1536 1 0.456975 0.0 -13.8268 3.99905 0.0
1653 1 0.492632 0.0 -13.3553 3.96905 0.0
77 1 0.497476 0.0 -12.8646 4.03353 0.0
636 1 0.530379 0.0 -12.5528 3.62506 0.0
1706 1 0.528958 0.0 -12.3568 4.11453 0.0
122 1 0.468025 0.0 -12.0609 3.70998 0.0
244 1 0.498285 0.0 -11.5839 3.78918 0.0
566 1 0.513838 0.0 -11.0611 3.82225 0.0
780 1 0.49086 0.0 -10.5604 3.84796 0.0
55 1 0.473343 0.0 -10.0714 3.8528 0.0
1061 1 0.487749 0.0 -9.56183 3.88803 0.0
657 1 0.547664 0.0 -9.04843 3.95403 0.0
704 1 0.492701 0.0 -8.5071 3.92015 0.0
1051 1 0.535408 0.0 -7.9977 3.97979 0.0
1201 1 0.487118 0.0 -7.53984 3.75713 0.0
2205 1 0.486553 0.0 -6.6776 3.92782 0.0
1218 1 0.453307 0.0 -6.21341 3.99025 0.0
477 1 0.479206 0.0 -5.84009 3.71614 0.0
1993 1 0.459743 0.0 -5.63037 4.13529 0.0
534 1 0.516243 0.0 -4.80873 4.00213 0.0
675 1 0.458184 0.0 -4.46276 3.66022 0.0
187 1 0.509264 0.0 -4.31033 4.11798 0.0
492 1 0.524032 0.0 -3.91502 3.79244 0.0
586 1 0.524766 0.0 -3.41385 3.94094 0.0
61 1 0.486934 0.0 -2.97807 3.68745 0.0
1526 1 0.513245 0.0 -2.52676 3.89397 0.0
2338 1 0.509121 0.0 -2.9328 4.20163 0.0
2752 1 0.549991 0.0 -1.99988 3.85589 0.0
6458 1 0.476815 0.0 -1.50595 3.73014 0.0
6950 1 0.535198 0.0 -1.32991 4.19488 0.0
42469 2 1.0 0.0 -0.548524 3.9244 0.0
322 1 0.535632 0.0 -40.7352 4.36882 0.0
809 1 0.45006 0.0 -39.8654 4.35504 0.0
202 1 0.501502 0.0 -40.2738 4.60138 0.0
656 1 0.495875 0.0 -39.362 4.66833 0.0
1431 1 0.507661 0.0 -38.9201 4.43308 0.0
1987 1 0.549697 0.0 -38.3462 4.6456 0.0
1343 1 0.537578 0.0 -37.9764 4.24968 0.0
116 1 0.481713 0.0 -37.5874 4.57738 0.0
127 1 0.470331 0.0 -37.2862 4.21048 0.0
1695 1 0.493732 0.0 -36.8064 4.22393 0.0
454 1 0.505543 0.0 -37.0695 4.64729 0.0
1607 1 0.502002 0.0 -36.3107 4.20602 0.0
532 1 0.528729 0.0 -36.5533 4.66578 0.0