ITEM: TIMESTEP
0
ITEM: NUMBER OF ATOMS
15
ITEM: BOX BOUNDS ff fm pp
-4.1000000000000000e+01 4.1000000000000000e+01
0.0000000000000000e+00 2.0000000000000000e+02
-2.5000000000000000e-01 2.5000000000000000e-01
ITEM: ATOMS id type x y 
42479 3 -0.5 145.327 
42481 3 -1 146.193 
42484 3 -1.5 147.059 
42485 3 -0.5 147.059 
42488 3 -2 147.925 
42489 3 -1 147.925 
42478 3 0 144.461 
42480 3 0.5 145.327 
42482 3 0 146.193 
42483 3 1 146.193 
42486 3 0.5 147.059 
42487 3 1.5 147.059 
42490 3 0 147.925 
42491 3 1 147.925 
42492 3 2 147.925 
ITEM: TIMESTEP
10000
ITEM: NUMBER OF ATOMS
15
ITEM: BOX BOUNDS ff fm pp
-4.1000000000000000e+01 4.1000000000000000e+01
0.0000000000000000e+00 2.0000000000000000e+02
-2.5000000000000000e-01 2.5000000000000000e-01
ITEM: ATOMS id type x y 
42478 3 -1.15346e-17 144.334 
42479 3 -0.5 145.2 
42481 3 -1 146.066 
42482 3 -1.52673e-17 146.066 
42484 3 -1.5 146.932 
42485 3 -0.5 146.932 
42488 3 -2 147.798 
42489 3 -1 147.798 
42490 3 -1.89999e-17 147.798 
42480 3 0.5 145.2 
42483 3 1 146.066 
42486 3 0.5 146.932 
42487 3 1.5 146.932 
42491 3 1 147.798 
42492 3 2 147.798 
ITEM: TIMESTEP
20000
ITEM: NUMBER OF ATOMS
15
ITEM: BOX BOUNDS ff fm pp
-4.1000000000000000e+01 4.1000000000000000e+01
0.0000000000000000e+00 2.0000000000000000e+02
-2.5000000000000000e-01 2.5000000000000000e-01
ITEM: ATOMS id type x y 
42478 3 -3.64341e-17 143.954 
42479 3 -0.5 144.82 
42481 3 -1 145.686 
42482 3 -5.79729e-17 145.686 
42484 3 -1.5 146.552 
42485 3 -0.5 146.552 
42488 3 -2 147.418 
42489 3 -1 147.418 
42490 3 -7.95118e-17 147.418 
42480 3 0.5 144.82 
42483 3 1 145.686 
42486 3 0.5 146.552 
42487 3 1.5 146.552 
42491 3 1 147.418 
42492 3 2 147.418 
ITEM: TIMESTEP
30000
ITEM: NUMBER OF ATOMS
15
ITEM: BOX BOUNDS ff fm pp
-4.1000000000000000e+01 4.1000000000000000e+01
0.0000000000000000e+00 2.0000000000000000e+02
-2.5000000000000000e-01 2.5000000000000000e-01
ITEM: ATOMS id type x y 
42478 3 -6.14733e-17 143.324 
42479 3 -0.5 144.19 
42481 3 -1 145.056 
42482 3 -1.2368e-16 145.056 
42484 3 -1.5 145.922 
42485 3 -0.5 145.922 
42488 3 -2 146.788 
42489 3 -1 146.788 
42490 3 -1.85886e-16 146.788 
42480 3 0.5 144.19 
42483 3 1 145.056 
42486 3 0.5 145.922 
42487 3 1.5 145.922 
42491 3 1 146.788 
42492 3 2 146.788 
ITEM: TIMESTEP
40000
ITEM: NUMBER OF ATOMS
15
ITEM: BOX BOUNDS ff fm pp
-4.1000000000000000e+01 4.1000000000000000e+01
0.0000000000000000e+00 2.0000000000000000e+02
-2.5000000000000000e-01 2.5000000000000000e-01
ITEM: ATOMS id type x y 
42478 3 -1.23284e-16 142.444 
42479 3 -0.5 143.31 
42481 3 -1 144.176 
42482 3 -2.21541e-16 144.176 
42484 3 -1.5 145.042 
42485 3 -0.5 145.042 
42488 3 -2 145.908 
42489 3 -1 145.908 
42490 3 -3.19798e-16 145.908 
42480 3 0.5 143.31 
42483 3 1 144.176 
42486 3 0.5 145.042 
42487 3 1.5 145.042 
42491 3 1 145.908 
42492 3 2 145.908 
ITEM: TIMESTEP
50000
ITEM: NUMBER OF ATOMS
15
ITEM: BOX BOUNDS ff fm pp
-4.1000000000000000e+01 4.1000000000000000e+01
0.0000000000000000e+00 2.0000000000000000e+02
-2.5000000000000000e-01 2.5000000000000000e-01
ITEM: ATOMS id type x y 
42478 3 -2.14272e-16 141.315 
42479 3 -0.5 142.181 
42481 3 -1 143.047 
42482 3 -3.49658e-16 143.047 
42484 3 -1.5 143.913 
42485 3 -0.5 143.913 
42488 3 -2 144.779 
42489 3 -1 144.779 
42490 3 -4.85044e-16 144.779 
42480 3 0.5 142.181 
42483 3 1 143.047 
42486 3 0.5 143.913 
42487 3 1.5 143.913 
42491 3 1 144.779 
42492 3 2 144.779 
ITEM: TIMESTEP
60000
ITEM: NUMBER OF ATOMS
15
ITEM: BOX BOUNDS ff fm pp
-4.1000000000000000e+01 4.1000000000000000e+01
0.0000000000000000e+00 2.0000000000000000e+02
-2.5000000000000000e-01 2.5000000000000000e-01
ITEM: ATOMS id type x y 
42478 3 -3.36443e-16 139.935 
42479 3 -0.5 140.801 
42481 3 -1 141.667 
42482 3 -5.08531e-16 141.667 
42484 3 -1.5 142.533 
42485 3 -0.5 142.533 
42488 3 -2 143.399 
42489 3 -1 143.399 
42490 3 -6.8062e-16 143.399 
42480 3 0.5 140.801 
42483 3 1 141.667 
42486 3 0.5 142.533 
42487 3 1.5 142.533 
42491 3 1 143.399 
42492 3 2 143.399 
ITEM: TIMESTEP
70000
ITEM: NUMBER OF ATOMS
15
ITEM: BOX BOUNDS ff fm pp
-4.1000000000000000e+01 4.1000000000000000e+01
0.0000000000000000e+00 2.0000000000000000e+02
-2.5000000000000000e-01 2.5000000000000000e-01
ITEM: ATOMS id type x y 
42478 3 -4.99421e-16 138.305 
42479 3 -0.5 139.171 
42481 3 -1 140.037 
42482 3 -7.00567e-16 140.037 
42484 3 -1.5 140.903 
42485 3 -0.5 140.903 
42488 3 -2 141.769 
42489 3 -1 141.769 
42490 3 -9.01712e-16 141.769 
42480 3 0.5 139.171 
42483 3 1 140.037 
42486 3 0.5 140.903 
42487 3 1.5 140.903 
42491 3 1 141.769 
42492 3 2 141.769 
ITEM: TIMESTEP
80000
ITEM: NUMBER OF ATOMS
15
ITEM: BOX BOUNDS ff fm pp
-4.1000000000000000e+01 4.1000000000000000e+01
0.0000000000000000e+00 2.0000000000000000e+02
-2.5000000000000000e-01 2.5000000000000000e-01
ITEM: ATOMS id type x y 
42478 3 -6.88858e-16 136.426 
42479 3 -0.5 137.292 
42481 3 -1 138.158 
42482 3 -9.22177e-16 138.158 
42484 3 -1.5 139.024 
42485 3 -0.5 139.024 
42488 3 -2 139.89 
42489 3 -1 139.89 
42490 3 -1.1555e-15 139.89 
42480 3 0.5 137.292 
42483 3 1 138.158 
42486 3 0.5 139.024 
42487 3 1.5 139.024 
42491 3 1 139.89 
42492 3 2 139.89 
ITEM: TIMESTEP
90000
ITEM: NUMBER OF ATOMS
15
ITEM: BOX BOUNDS ff fm pp
-4.1000000000000000e+01 4.1000000000000000e+01
0.0000000000000000e+00 2.0000000000000000e+02
-2.5000000000000000e-01 2.5000000000000000e-01
ITEM: ATOMS id type x y 
42478 3 -9.40543e-16 134.296 
42479 3 -0.5 135.162 
42481 3 -1 136.028 
42482 3 -1.18231e-15 136.028 
42484 3 -1.5 136.894 
42485 3 -0.5 136.894 
42488 3 -2 137.76 
42489 3 -1 137.76 
42490 3 -1.42408e-15 137.76 
42480 3 0.5 135.162 
42483 3 1 136.028 
42486 3 0.5 136.894 
42487 3 1.5 136.894 
42491 3 1 137.76 
42492 3 2 137.76 
ITEM: TIMESTEP
100000
ITEM: NUMBER OF ATOMS
15
ITEM: BOX BOUNDS ff fm pp
-4.1000000000000000e+01 4.1000000000000000e+01
0.0000000000000000e+00 2.0000000000000000e+02
-2.5000000000000000e-01 2.5000000000000000e-01
ITEM: ATOMS id type x y 
42478 3 -1.26664e-15 131.916 
42479 3 -0.5 132.782 
42481 3 -1 133.648 
42482 3 -1.48401e-15 133.648 
42484 3 -1.5 134.514 
42485 3 -0.5 134.514 
42488 3 -2 135.38 
42489 3 -1 135.38 
42490 3 -1.70137e-15 135.38 
42480 3 0.5 132.782 
42483 3 1 133.648 
42486 3 0.5 134.514 
42487 3 1.5 134.514 
42491 3 1 135.38 
42492 3 2 135.38 
ITEM: TIMESTEP
110000
ITEM: NUMBER OF ATOMS
15
ITEM: BOX BOUNDS ff fm pp
-4.1000000000000000e+01 4.1000000000000000e+01
0.0000000000000000e+00 2.0000000000000000e+02
-2.5000000000000000e-01 2.5000000000000000e-01
ITEM: ATOMS id type x y 
42478 3 -1.62045e-15 129.286 
42479 3 -0.5 130.152 
42481 3 -1 131.018 
42482 3 -1.81559e-15 131.018 
42484 3 -1.5 131.884 
42485 3 -0.5 131.884 
42488 3 -2 132.75 
42489 3 -1 132.75 
42490 3 -2.01073e-15 132.75 
42480 3 0.5 130.152 
42483 3 1 131.018 
42486 3 0.5 131.884 
42487 3 1.5 131.884 
42491 3 1 132.75 
42492 3 2 132.75 
ITEM: TIMESTEP
120000
ITEM: NUMBER OF ATOMS
15
ITEM: BOX BOUNDS ff fm pp
-4.1000000000000000e+01 4.1000000000000000e+01
0.0000000000000000e+00 2.0000000000000000e+02
-2.5000000000000000e-01 2.5000000000000000e-01
ITEM: ATOMS id type x y 
42478 3 -1.99254e-15 126.407 
42479 3 -0.5 127.273 
42481 3 -1 128.139 
42482 3 -2.17471e-15 128.139 
42484 3 -1.5 129.005 
42485 3 -0.5 129.005 
42488 3 -2 129.871 
42489 3 -1 129.871 
42490 3 -2.35687e-15 129.871 
42480 3 0.5 127.273 
42483 3 1 128.139 
42486 3 0.5 129.005 
42487 3 1.5 129.005 
42491 3 1 129.871 
42492 3 2 129.871 
ITEM: TIMESTEP
130000
ITEM: NUMBER OF ATOMS
15
ITEM: BOX BOUNDS ff fm pp
-4.1000000000000000e+01 4.1000000000000000e+01
0.0000000000000000e+00 2.0000000000000000e+02
-2.5000000000000000e-01 2.5000000000000000e-01
ITEM: ATOMS id type x y 
42478 3 -2.40146e-15 123.277 
42479 3 -0.5 124.143 
42481 3 -1 125.009 
42482 3 -2.56599e-15 125.009 
42484 3 -1.5 125.875 
42485 3 -0.5 125.875 
42488 3 -2 126.741 
42489 3 -1 126.741 
42490 3 -2.73052e-15 126.741 
42480 3 0.5 124.143 
42483 3 1 125.009 
42486 3 0.5 125.875 
42487 3 1.5 125.875 
42491 3 1 126.741 
42492 3 2 126.741 
ITEM: TIMESTEP
140000
ITEM: NUMBER OF ATOMS
15
ITEM: BOX BOUNDS ff fm pp
-4.1000000000000000e+01 4.1000000000000000e+01
0.0000000000000000e+00 2.0000000000000000e+02
-2.5000000000000000e-01 2.5000000000000000e-01
ITEM: ATOMS id type x y 
42478 3 -0.00364494 119.916 
42479 3 -0.502648 120.783 
42481 3 -1.00165 121.649 
42482 3 -0.00165198 121.648 
42484 3 -1.50065 122.516 
42485 3 -0.500655 122.515 
42488 3 -1.99966 123.383 
42489 3 -0.999658 123.381 
42480 3 0.497351 120.782 
42483 3 0.998347 121.647 
42486 3 0.499344 122.514 
42487 3 1.49934 122.512 
42490 3 0.000340971 123.38 
42491 3 1.00034 123.379 
42492 3 2.00034 123.378 
ITEM: TIMESTEP
150000
ITEM: NUMBER OF ATOMS
15
ITEM: BOX BOUNDS ff fm pp
-4.1000000000000000e+01 4.1000000000000000e+01
0.0000000000000000e+00 2.0000000000000000e+02
-2.5000000000000000e-01 2.5000000000000000e-01
ITEM: ATOMS id type x y 
42478 3 -0.007193 116.361 
42479 3 -0.505257 117.228 
42481 3 -1.00332 118.095 
42482 3 -0.00332307 118.093 
42484 3 -1.50138 118.962 
42485 3 -0.501387 118.96 
42488 3 -1.99945 119.829 
42489 3 -0.999451 119.827 
42480 3 0.494741 117.226 
42483 3 0.996674 118.09 
42486 3 0.498611 118.958 
42487 3 1.49861 118.955 
42490 3 0.000546854 119.825 
42491 3 1.00054 119.822 
42492 3 2.00054 119.82 
ITEM: TIMESTEP
160000
ITEM: NUMBER OF ATOMS
15
ITEM: BOX BOUNDS ff fm pp
-4.1000000000000000e+01 4.1000000000000000e+01
0.0000000000000000e+00 2.0000000000000000e+02
-2.5000000000000000e-01 2.5000000000000000e-01
ITEM: ATOMS id type x y 
42478 3 -0.0103703 112.576 
42479 3 -0.507624 113.444 
42481 3 -1.00488 114.311 
42482 3 -0.00488309 114.308 
42484 3 -1.50213 115.179 
42485 3 -0.502137 115.176 
42488 3 -1.99939 116.046 
42489 3 -0.999391 116.043 
42480 3 0.492371 113.441 
42483 3 0.995112 114.305 
42486 3 0.497858 115.172 
42487 3 1.49785 115.169 
42490 3 0.000604114 116.04 
42491 3 1.0006 116.037 
42492 3 2.00059 116.034 
ITEM: TIMESTEP
170000
ITEM: NUMBER OF ATOMS
15
ITEM: BOX BOUNDS ff fm pp
-4.1000000000000000e+01 4.1000000000000000e+01
0.0000000000000000e+00 2.0000000000000000e+02
-2.5000000000000000e-01 2.5000000000000000e-01
ITEM: ATOMS id type x y 
42478 3 -0.0071043 108.544 
42479 3 -0.50503 109.411 
42481 3 -1.00296 110.278 
42482 3 -0.00295826 110.276 
42484 3 -1.50088 111.146 
42485 3 -0.500884 111.143 
42488 3 -1.99881 112.013 
42489 3 -0.998809 112.01 
42480 3 0.494967 109.409 
42483 3 0.997039 110.274 
42486 3 0.499113 111.141 
42487 3 1.49911 111.138 
42490 3 0.00118777 112.008 
42491 3 1.00118 112.006 
42492 3 2.00118 112.003 
ITEM: TIMESTEP
180000
ITEM: NUMBER OF ATOMS
15
ITEM: BOX BOUNDS ff fm pp
-4.1000000000000000e+01 4.1000000000000000e+01
0.0000000000000000e+00 2.0000000000000000e+02
-2.5000000000000000e-01 2.5000000000000000e-01
ITEM: ATOMS id type x y 
42478 3 -0.00881028 104.27 
42479 3 -0.506187 105.138 
42481 3 -1.00356 106.005 
42482 3 -0.00356734 106.002 
42484 3 -1.50094 106.873 
42485 3 -0.500944 106.87 
42488 3 -1.99832 107.74 
42489 3 -0.99832 107.737 
42480 3 0.493809 105.135 
42483 3 0.996428 105.999 
42486 3 0.499052 106.867 
42487 3 1.49905 106.864 
42490 3 0.00167561 107.734 
42491 3 1.00167 107.731 
42492 3 2.00167 107.728 
ITEM: TIMESTEP
190000
ITEM: NUMBER OF ATOMS
15
ITEM: BOX BOUNDS ff fm pp
-4.1000000000000000e+01 4.1000000000000000e+01
0.0000000000000000e+00 2.0000000000000000e+02
-2.5000000000000000e-01 2.5000000000000000e-01
ITEM: ATOMS id type x y 
42478 3 -0.0055317 99.8069 
42479 3 -0.503785 100.674 
42481 3 -1.00204 101.541 
42482 3 -0.00204047 101.539 
42484 3 -1.50029 102.408 
42485 3 -0.500294 102.406 
42488 3 -1.99855 103.275 
42489 3 -0.998547 103.273 
42480 3 0.496213 100.672 
42483 3 0.997957 101.537 
42486 3 0.499704 102.404 
42487 3 1.4997 102.402 
42490 3 0.00145076 103.271 
42491 3 1.00145 103.269 
42492 3 2.00145 103.267 
ITEM: TIMESTEP
200000
ITEM: NUMBER OF ATOMS
15
ITEM: BOX BOUNDS ff fm pp
-4.1000000000000000e+01 4.1000000000000000e+01
0.0000000000000000e+00 2.0000000000000000e+02
-2.5000000000000000e-01 2.5000000000000000e-01
ITEM: ATOMS id type x y 
42479 3 -0.498985 96.0039 
42481 3 -0.999621 96.8696 
42484 3 -1.50026 97.7352 
42485 3 -0.500258 97.7359 
42488 3 -2.0009 98.6008 
42489 3 -1.0009 98.6016 
42490 3 -0.00089557 98.6023 
42478 3 0.00165226 95.1383 
42480 3 0.501015 96.0047 
42482 3 0.000378346 96.8703 
42483 3 1.00038 96.871 
42486 3 0.499741 97.7367 
42487 3 1.49974 97.7374 
42491 3 0.999104 98.603 
42492 3 1.9991 98.6038 
ITEM: TIMESTEP
210000
ITEM: NUMBER OF ATOMS
15
ITEM: BOX BOUNDS ff fm pp
-4.1000000000000000e+01 4.1000000000000000e+01
0.0000000000000000e+00 2.0000000000000000e+02
-2.5000000000000000e-01 2.5000000000000000e-01
ITEM: ATOMS id type x y 
42479 3 -0.490921 91.1182 
42481 3 -0.995543 91.9815 
42484 3 -1.50017 92.8448 
42485 3 -0.500181 92.8502 
42488 3 -2.00479 93.7082 
42489 3 -1.0048 93.7135 
42490 3 -0.00481766 93.7189 
42478 3 0.0137022 90.2549 
42480 3 0.509065 91.1236 
42482 3 0.00444228 91.9869 
42483 3 1.00443 91.9922 
42486 3 0.499805 92.8555 
42487 3 1.49979 92.8609 
42491 3 0.995168 93.7242 
42492 3 1.99515 93.7295 
ITEM: TIMESTEP
220000
ITEM: NUMBER OF ATOMS
15
ITEM: BOX BOUNDS ff fm pp
-4.1000000000000000e+01 4.1000000000000000e+01
0.0000000000000000e+00 2.0000000000000000e+02
-2.5000000000000000e-01 2.5000000000000000e-01
ITEM: ATOMS id type x y 
42479 3 -0.471081 86.0443 
42481 3 -0.983643 86.903 
42484 3 -1.49621 87.7616 
42485 3 -0.496311 87.7762 
42488 3 -2.00877 88.6202 
42489 3 -1.00887 88.6348 
42490 3 -0.00897984 88.6493 
42478 3 0.0414818 85.1857 
42480 3 0.528813 86.0589 
42482 3 0.016251 86.9175 
42483 3 1.01614 86.9321 
42486 3 0.503583 87.7907 
42487 3 1.50348 87.8053 
42491 3 0.990914 88.6639 
42492 3 1.99081 88.6785 
ITEM: TIMESTEP
230000
ITEM: NUMBER OF ATOMS
15
ITEM: BOX BOUNDS ff fm pp
-4.1000000000000000e+01 4.1000000000000000e+01
0.0000000000000000e+00 2.0000000000000000e+02
-2.5000000000000000e-01 2.5000000000000000e-01
ITEM: ATOMS id type x y 
42479 3 -0.459652 80.7821 
42481 3 -0.9789 81.6367 
42484 3 -1.49815 82.4913 
42485 3 -0.498398 82.5137 
42488 3 -2.0174 83.3459 
42489 3 -1.01765 83.3683 
42490 3 -0.0178963 83.3906 
42478 3 0.0595956 79.9275 
42480 3 0.540098 80.8045 
42482 3 0.0208497 81.6591 
42483 3 1.0206 81.6815 
42486 3 0.501352 82.5361 
42487 3 1.5011 82.5584 
42491 3 0.981853 83.413 
42492 3 1.9816 83.4354 
ITEM: TIMESTEP
240000
ITEM: NUMBER OF ATOMS
15
ITEM: BOX BOUNDS ff fm pp
-4.1000000000000000e+01 4.1000000000000000e+01
0.0000000000000000e+00 2.0000000000000000e+02
-2.5000000000000000e-01 2.5000000000000000e-01
ITEM: ATOMS id type x y 
42479 3 -0.453027 75.3284 
42481 3 -0.979304 76.1786 
42484 3 -1.50558 77.0289 
42485 3 -0.50605 77.0595 
42488 3 -2.03186 77.8792 
42489 3 -1.03233 77.9098 
42490 3 -0.0327954 77.9404 
42478 3 0.0732504 74.4781 
42480 3 0.546505 75.359 
42482 3 0.0202275 76.2093 
42483 3 1.01976 76.2399 
42486 3 0.493482 77.0902 
42487 3 1.49301 77.1208 
42491 3 0.966736 77.9711 
42492 3 1.96627 78.0017 
ITEM: TIMESTEP
250000
ITEM: NUMBER OF ATOMS
15
ITEM: BOX BOUNDS ff fm pp
-4.1000000000000000e+01 4.1000000000000000e+01
0.0000000000000000e+00 2.0000000000000000e+02
-2.5000000000000000e-01 2.5000000000000000e-01
ITEM: ATOMS id type x y 
42479 3 -0.435224 69.7097 
42481 3 -0.974836 70.5516 
42484 3 -1.51445 71.3935 
42485 3 -0.515523 71.4398 
42488 3 -2.05406 72.2354 
42489 3 -1.05514 72.2817 
42490 3 -0.0562106 72.3281 
42478 3 0.104388 68.8678 
42480 3 0.563701 69.7561 
42482 3 0.0240889 70.598 
42483 3 1.02301 70.6443 
42486 3 0.483401 71.4862 
42487 3 1.48233 71.5326 
42491 3 0.942714 72.3745 
42492 3 1.94164 72.4208 
ITEM: TIMESTEP
260000
ITEM: NUMBER OF ATOMS
15
ITEM: BOX BOUNDS ff fm pp
-4.1000000000000000e+01 4.1000000000000000e+01
0.0000000000000000e+00 2.0000000000000000e+02
-2.5000000000000000e-01 2.5000000000000000e-01
ITEM: ATOMS id type x y 
42488 3 -2.08919 66.4003 
42479 3 -0.399897 63.9212 
42481 3 -0.962994 64.7476 
42484 3 -1.52609 65.5739 
42485 3 -0.528867 65.6484 
42489 3 -1.09196 66.4748 
42490 3 -0.0947392 66.5492 
42478 3 0.163199 63.0948 
42480 3 0.597326 63.9957 
42482 3 0.0342299 64.822 
42483 3 1.03145 64.8965 
42486 3 0.468357 65.7229 
42487 3 1.46558 65.7973 
42491 3 0.902485 66.6237 
42492 3 1.89971 66.6981 
ITEM: TIMESTEP
270000
ITEM: NUMBER OF ATOMS
15
ITEM: BOX BOUNDS ff fm pp
-4.1000000000000000e+01 4.1000000000000000e+01
0.0000000000000000e+00 2.0000000000000000e+02
-2.5000000000000000e-01 2.5000000000000000e-01
ITEM: ATOMS id type x y 
42479 3 -0.355652 57.9879 
42481 3 -0.94919 58.7926 
42484 3 -1.54273 59.5974 
42485 3 -0.548976 59.709 
42488 3 -2.13626 60.4022 
42489 3 -1.14251 60.5138 
42490 3 -0.148762 60.6254 
42478 3 0.237885 57.1831 
42480 3 0.638099 58.0995 
42482 3 0.0445616 58.9043 
42483 3 1.03831 59.0159 
42486 3 0.444775 59.8207 
42487 3 1.43853 59.9323 
42491 3 0.844989 60.7371 
42492 3 1.83874 60.8487 
ITEM: TIMESTEP
280000
ITEM: NUMBER OF ATOMS
15
ITEM: BOX BOUNDS ff fm pp
-4.1000000000000000e+01 4.1000000000000000e+01
0.0000000000000000e+00 2.0000000000000000e+02
-2.5000000000000000e-01 2.5000000000000000e-01
ITEM: ATOMS id type x y 
42479 3 -0.301987 51.9238 
42481 3 -0.932105 52.7003 
42484 3 -1.56222 53.4768 
42485 3 -0.574696 53.6342 
42488 3 -2.19234 54.2532 
42489 3 -1.20481 54.4107 
42490 3 -0.217288 54.5681 
42478 3 0.328131 51.1474 
42480 3 0.68554 52.0813 
42482 3 0.0554216 52.8578 
42483 3 1.04295 53.0152 
42486 3 0.41283 53.7917 
42487 3 1.40036 53.9491 
42491 3 0.770238 54.7256 
42492 3 1.75776 54.8831 
ITEM: TIMESTEP
290000
ITEM: NUMBER OF ATOMS
15
ITEM: BOX BOUNDS ff fm pp
-4.1000000000000000e+01 4.1000000000000000e+01
0.0000000000000000e+00 2.0000000000000000e+02
-2.5000000000000000e-01 2.5000000000000000e-01
ITEM: ATOMS id type x y 
42479 3 -0.216009 45.738 
42481 3 -0.892056 46.4748 
42484 3 -1.5681 47.2116 
42485 3 -0.591944 47.4287 
42488 3 -2.24415 47.9484 
42489 3 -1.26799 48.1655 
42490 3 -0.291831 48.3826 
42478 3 0.460038 45.0011 
42480 3 0.760151 45.955 
42482 3 0.0841038 46.6918 
42483 3 1.06026 46.9089 
42486 3 0.384216 47.6457 
42487 3 1.36038 47.8628 
42491 3 0.684329 48.5996 
42492 3 1.66049 48.8167 
ITEM: TIMESTEP
300000
ITEM: NUMBER OF ATOMS
15
ITEM: BOX BOUNDS ff fm pp
-4.1000000000000000e+01 4.1000000000000000e+01
0.0000000000000000e+00 2.0000000000000000e+02
-2.5000000000000000e-01 2.5000000000000000e-01
ITEM: ATOMS id type x y 
42479 3 -0.088963 39.4456 
42481 3 -0.810762 40.1377 
42484 3 -1.53256 40.8297 
42485 3 -0.572287 41.1088 
42488 3 -2.25436 41.5218 
42489 3 -1.29409 41.8009 
42490 3 -0.333811 42.0799 
42478 3 0.632836 38.7535 
42480 3 0.871312 39.7247 
42482 3 0.149513 40.4167 
42483 3 1.10979 40.6958 
42486 3 0.387988 41.3879 
42487 3 1.34826 41.6669 
42491 3 0.626464 42.359 
42492 3 1.58674 42.638 
ITEM: TIMESTEP
310000
ITEM: NUMBER OF ATOMS
15
ITEM: BOX BOUNDS ff fm pp
-4.1000000000000000e+01 4.1000000000000000e+01
0.0000000000000000e+00 2.0000000000000000e+02
-2.5000000000000000e-01 2.5000000000000000e-01
ITEM: ATOMS id type x y 
42481 3 -0.652952 33.6878 
42484 3 -1.41785 34.3319 
42485 3 -0.47755 34.6723 
42488 3 -2.18274 34.976 
42489 3 -1.24245 35.3164 
42490 3 -0.302149 35.6567 
42478 3 0.87684 32.3996 
42479 3 0.111944 33.0437 
42480 3 1.05224 33.384 
42482 3 0.287346 34.0281 
42483 3 1.22764 34.3685 
42486 3 0.462747 35.0126 
42487 3 1.40304 35.353 
42491 3 0.638148 35.9971 
42492 3 1.57845 36.3375 
ITEM: TIMESTEP
320000
ITEM: NUMBER OF ATOMS
15
ITEM: BOX BOUNDS ff fm pp
-4.1000000000000000e+01 4.1000000000000000e+01
0.0000000000000000e+00 2.0000000000000000e+02
-2.5000000000000000e-01 2.5000000000000000e-01
ITEM: ATOMS id type x y 
42481 3 -0.414779 27.1487 
42484 3 -1.23166 27.7255 
42485 3 -0.323699 28.1445 
42488 3 -2.04854 28.3022 
42489 3 -1.14058 28.7213 
42490 3 -0.232619 29.1403 
42478 3 1.21898 25.9951 
42479 3 0.402102 26.5719 
42480 3 1.31006 26.991 
42482 3 0.493182 27.5677 
42483 3 1.40114 27.9868 
42486 3 0.584262 28.5636 
42487 3 1.49222 28.9826 
42491 3 0.675343 29.5594 
42492 3 1.5833 29.9784 
ITEM: TIMESTEP
330000
ITEM: NUMBER OF ATOMS
15
ITEM: BOX BOUNDS ff fm pp
-4.1000000000000000e+01 4.1000000000000000e+01
0.0000000000000000e+00 2.0000000000000000e+02
-2.5000000000000000e-01 2.5000000000000000e-01
ITEM: ATOMS id type x y 
42481 3 -0.115157 20.5686 
42488 3 -1.85901 21.5478 
42484 3 -0.987083 21.0582 
42485 3 -0.127095 21.5685 
42489 3 -0.999021 22.0581 
42490 3 -0.139033 22.5684 
42478 3 1.6287 19.5894 
42479 3 0.756769 20.079 
42480 3 1.61676 20.5893 
42482 3 0.744831 21.0789 
42483 3 1.60482 21.5892 
42486 3 0.732893 22.0788 
42487 3 1.59288 22.5891 
42491 3 0.720955 23.0787 
42492 3 1.58094 23.5891 
ITEM: TIMESTEP
340000
ITEM: NUMBER OF ATOMS
15
ITEM: BOX BOUNDS ff fm pp
-4.1000000000000000e+01 4.1000000000000000e+01
0.0000000000000000e+00 2.0000000000000000e+02
-2.5000000000000000e-01 2.5000000000000000e-01
ITEM: ATOMS id type x y 
42484 3 -0.592803 14.3322 
42488 3 -1.52211 14.7015 
42489 3 -0.737652 15.3217 
42478 3 2.19512 13.2245 
42479 3 1.26581 13.5937 
42481 3 0.336504 13.963 
42480 3 2.05027 14.2139 
42485 3 0.191655 14.9524 
42482 3 1.12096 14.5832 
42486 3 0.976113 15.5726 
42483 3 1.90542 15.2034 
42490 3 0.0468061 15.9419 
42487 3 1.76057 16.1928 
42491 3 0.831264 16.562 
42492 3 1.61572 17.1822 
ITEM: TIMESTEP
350000
ITEM: NUMBER OF ATOMS
15
ITEM: BOX BOUNDS ff fm pp
-4.1000000000000000e+01 4.1000000000000000e+01
0.0000000000000000e+00 2.0000000000000000e+02
-2.5000000000000000e-01 2.5000000000000000e-01
ITEM: ATOMS id type x y 
42488 3 -1.00597 7.99277 
42484 3 -0.0311642 7.76983 
42489 3 -0.325471 8.72552 
42478 3 2.89326 7.10101 
42481 3 0.943645 7.54689 
42479 3 1.91845 7.32395 
42482 3 1.62415 8.27964 
42480 3 2.59896 8.05669 
42485 3 0.649338 8.50258 
42490 3 0.355031 9.45826 
42486 3 1.32984 9.23532 
42483 3 2.30465 9.01238 
42487 3 2.01034 9.96807 
42491 3 1.03553 10.191 
42492 3 1.71603 10.9238 
ITEM: TIMESTEP
360000
ITEM: NUMBER OF ATOMS
15
ITEM: BOX BOUNDS ff fm pp
-4.1000000000000000e+01 4.1000000000000000e+01
0.0000000000000000e+00 2.0000000000000000e+02
-2.5000000000000000e-01 2.5000000000000000e-01
ITEM: ATOMS id type x y 
42488 3 -0.188338 1.63896 
42479 3 2.80226 1.40253 
42478 3 3.79913 1.32372 
42484 3 0.808529 1.56015 
42481 3 1.8054 1.48134 
42489 3 0.378371 2.46288 
42485 3 1.37524 2.38407 
42482 3 2.37211 2.30526 
42480 3 3.36897 2.22644 
42483 3 2.93881 3.12917 
42490 3 0.945079 3.28679 
42486 3 1.94195 3.20798 
42491 3 1.51179 4.11071 
42487 3 2.50866 4.0319 
42492 3 2.0785 4.93463 
ITEM: TIMESTEP
370000
ITEM: NUMBER OF ATOMS
15
ITEM: BOX BOUNDS ff fm pp
-4.1000000000000000e+01 4.1000000000000000e+01
0.0000000000000000e+00 2.0000000000000000e+02
-2.5000000000000000e-01 2.5000000000000000e-01
ITEM: ATOMS id type x y 
42488 3 3.28967 0.960865 
42484 3 3.86037 1.782 
42489 3 2.8639 1.86569 
42490 3 2.43812 2.77052 
42485 3 3.43459 2.68683 
42481 3 4.43106 2.60314 
42482 3 4.00529 3.50796 
42479 3 5.00176 3.42427 
42491 3 2.01235 3.67535 
42486 3 3.00882 3.59166 
42480 3 4.57598 4.3291 
42478 3 5.57245 4.24541 
42487 3 2.58305 4.49649 
42483 3 3.57951 4.41279 
42492 3 1.58658 4.58018 
ITEM: TIMESTEP
380000
ITEM: NUMBER OF ATOMS
15
ITEM: BOX BOUNDS ff fm pp
-4.1000000000000000e+01 4.1000000000000000e+01
0.0000000000000000e+00 2.0000000000000000e+02
-2.5000000000000000e-01 2.5000000000000000e-01
ITEM: ATOMS id type x y 
42492 3 3.98 1.48015 
42491 3 4.80189 2.0498 
42487 3 3.89763 2.47673 
42490 3 5.62378 2.61944 
42489 3 6.44567 3.18909 
42486 3 4.71952 3.04638 
42485 3 5.54141 3.61602 
42488 3 7.26756 3.75874 
42483 3 3.81526 3.47331 
42482 3 4.63715 4.04296 
42484 3 6.3633 4.18567 
42480 3 3.73289 4.46989 
42481 3 5.45904 4.6126 
42479 3 4.55478 5.03954 
42478 3 3.65053 5.46647 
ITEM: TIMESTEP
390000
ITEM: NUMBER OF ATOMS
15
ITEM: BOX BOUNDS ff fm pp
-4.1000000000000000e+01 4.1000000000000000e+01
0.0000000000000000e+00 2.0000000000000000e+02
-2.5000000000000000e-01 2.5000000000000000e-01
ITEM: ATOMS id type x y 
42478 3 4.73866 2.03133 
42480 3 5.71567 2.2444 
42483 3 6.69268 2.45748 
42487 3 7.6697 2.67055 
42492 3 8.64671 2.88362 
42479 3 5.04261 2.98399 
42482 3 6.01962 3.19707 
42486 3 6.99664 3.41014 
42491 3 7.97365 3.62321 
42481 3 5.34657 3.93666 
42485 3 6.32358 4.14973 
42490 3 7.30059 4.3628 
42484 3 5.65052 4.88932 
42489 3 6.62754 5.10239 
42488 3 5.95448 5.84198 
ITEM: TIMESTEP
400000
ITEM: NUMBER OF ATOMS
15
ITEM: BOX BOUNDS ff fm pp
-4.1000000000000000e+01 4.1000000000000000e+01
0.0000000000000000e+00 2.0000000000000000e+02
-2.5000000000000000e-01 2.5000000000000000e-01
ITEM: ATOMS id type x y 
42478 3 9.65445 1.79864 
42481 3 7.69456 2.19696 
42479 3 8.6745 1.9978 
42488 3 5.73467 2.59527 
42484 3 6.71461 2.39612 
42482 3 8.35703 2.94604 
42480 3 9.33698 2.74689 
42485 3 7.37709 3.1452 
42483 3 9.0195 3.69513 
42489 3 6.39714 3.34436 
42486 3 8.03956 3.89429 
42490 3 7.05961 4.09345 
42487 3 8.70203 4.64338 
42491 3 7.72209 4.84253 
42492 3 8.38456 5.59162 
ITEM: TIMESTEP
410000
ITEM: NUMBER OF ATOMS
15
ITEM: BOX BOUNDS ff fm pp
-4.1000000000000000e+01 4.1000000000000000e+01
0.0000000000000000e+00 2.0000000000000000e+02
-2.5000000000000000e-01 2.5000000000000000e-01
ITEM: ATOMS id type x y 
42488 3 10.3637 0.796676 
42489 3 9.55218 1.38096 
42484 3 10.4639 1.79162 
42490 3 8.74063 1.96525 
42485 3 9.6524 2.3759 
42491 3 7.92908 2.54953 
42481 3 10.5642 2.78656 
42492 3 7.11753 3.13381 
42486 3 8.84085 2.96019 
42482 3 9.75261 3.37085 
42487 3 8.0293 3.54447 
42483 3 8.94106 3.95513 
42479 3 10.6644 3.78151 
42480 3 9.85283 4.36579 
42478 3 10.7646 4.77645 
ITEM: TIMESTEP
420000
ITEM: NUMBER OF ATOMS
15
ITEM: BOX BOUNDS ff fm pp
-4.1000000000000000e+01 4.1000000000000000e+01
0.0000000000000000e+00 2.0000000000000000e+02
-2.5000000000000000e-01 2.5000000000000000e-01
ITEM: ATOMS id type x y 
42492 3 10.1301 0.44885 
42491 3 10.853 1.13979 
42487 3 9.89323 1.42036 
42490 3 11.576 1.83072 
42483 3 9.65633 2.39188 
42486 3 10.6161 2.1113 
42489 3 12.2989 2.52166 
42485 3 11.3391 2.80223 
42480 3 9.41944 3.36339 
42482 3 10.3793 3.08281 
42484 3 12.062 3.49317 
42488 3 13.0218 3.21259 
42479 3 10.1424 4.05433 
42481 3 11.1022 3.77375 
42478 3 9.18255 4.3349 
ITEM: TIMESTEP
430000
ITEM: NUMBER OF ATOMS
15
ITEM: BOX BOUNDS ff fm pp
-4.1000000000000000e+01 4.1000000000000000e+01
0.0000000000000000e+00 2.0000000000000000e+02
-2.5000000000000000e-01 2.5000000000000000e-01
ITEM: ATOMS id type x y 
42492 3 11.6399 0.862007 
42487 3 11.0956 1.70087 
42491 3 12.0942 1.75285 
42483 3 10.5513 2.53973 
42486 3 11.5499 2.59171 
42490 3 12.5485 2.64369 
42480 3 10.007 3.37859 
42482 3 11.0056 3.43057 
42485 3 12.0042 3.48254 
42489 3 13.0029 3.53452 
42478 3 9.46268 4.21745 
42479 3 10.4613 4.26943 
42481 3 11.4599 4.3214 
42484 3 12.4586 4.37338 
42488 3 13.4572 4.42536 
ITEM: TIMESTEP
440000
ITEM: NUMBER OF ATOMS
15
ITEM: BOX BOUNDS ff fm pp
-4.1000000000000000e+01 4.1000000000000000e+01
0.0000000000000000e+00 2.0000000000000000e+02
-2.5000000000000000e-01 2.5000000000000000e-01
ITEM: ATOMS id type x y 
42492 3 13.1489 1.26306 
42487 3 12.3592 1.8765 
42491 3 13.2853 2.25372 
42483 3 11.5695 2.48994 
42486 3 12.4956 2.86716 
42480 3 10.7798 3.10338 
42482 3 11.7059 3.4806 
42490 3 13.4217 3.24437 
42478 3 9.99005 3.71682 
42479 3 10.9162 4.09404 
42485 3 12.632 3.85781 
42489 3 13.5581 4.23503 
42481 3 11.8423 4.47125 
42484 3 12.7684 4.84847 
42488 3 13.6945 5.22568 
ITEM: TIMESTEP
450000
ITEM: NUMBER OF ATOMS
15
ITEM: BOX BOUNDS ff fm pp
-4.1000000000000000e+01 4.1000000000000000e+01
0.0000000000000000e+00 2.0000000000000000e+02
-2.5000000000000000e-01 2.5000000000000000e-01
ITEM: ATOMS id type x y 
42492 3 14.5601 1.60946 
42483 3 12.6739 2.27415 
42487 3 13.617 1.9418 
42480 3 11.7307 2.60649 
42486 3 13.4332 2.92477 
42491 3 14.3764 2.59243 
42478 3 10.7876 2.93884 
42482 3 12.4901 3.25712 
42490 3 14.1926 3.5754 
42479 3 11.547 3.58946 
42485 3 13.2495 3.90774 
42481 3 12.3063 4.24009 
42489 3 14.0088 4.55837 
42484 3 13.0657 4.89071 
42488 3 13.8251 5.54134 
ITEM: TIMESTEP
460000
ITEM: NUMBER OF ATOMS
15
ITEM: BOX BOUNDS ff fm pp
-4.1000000000000000e+01 4.1000000000000000e+01
0.0000000000000000e+00 2.0000000000000000e+02
-2.5000000000000000e-01 2.5000000000000000e-01
ITEM: ATOMS id type x y 
42478 3 11.8065 1.99209 
42480 3 12.8056 1.95063 
42483 3 13.8047 1.90918 
42487 3 14.8038 1.86773 
42492 3 15.8029 1.82628 
42479 3 12.3419 2.83664 
42482 3 13.341 2.79518 
42486 3 14.3401 2.75373 
42491 3 15.3393 2.71228 
42481 3 12.8773 3.68119 
42485 3 13.8765 3.63973 
42490 3 14.8756 3.59828 
42484 3 13.4128 4.52574 
42489 3 14.4119 4.48428 
42488 3 13.9482 5.37029 
ITEM: TIMESTEP
470000
ITEM: NUMBER OF ATOMS
15
ITEM: BOX BOUNDS ff fm pp
-4.1000000000000000e+01 4.1000000000000000e+01
0.0000000000000000e+00 2.0000000000000000e+02
-2.5000000000000000e-01 2.5000000000000000e-01
ITEM: ATOMS id type x y 
42478 3 12.7314 1.42675 
42480 3 13.7237 1.55056 
42483 3 14.716 1.67437 
42487 3 15.7083 1.79818 
42479 3 13.1203 2.34801 
42492 3 16.7005 1.922 
42482 3 14.1126 2.47182 
42486 3 15.1049 2.59563 
42491 3 16.0971 2.71944 
42481 3 13.5092 3.26927 
42485 3 14.5015 3.39308 
42490 3 15.4938 3.51689 
42484 3 13.8981 4.19052 
42489 3 14.8904 4.31434 
42488 3 14.287 5.11178 
ITEM: TIMESTEP
480000
ITEM: NUMBER OF ATOMS
15
ITEM: BOX BOUNDS ff fm pp
-4.1000000000000000e+01 4.1000000000000000e+01
0.0000000000000000e+00 2.0000000000000000e+02
-2.5000000000000000e-01 2.5000000000000000e-01
ITEM: ATOMS id type x y 
42478 3 13.1158 1.85964 
42480 3 14.115 1.89797 
42483 3 15.1143 1.93631 
42487 3 16.1135 1.97464 
42492 3 17.1127 2.01298 
42479 3 13.5822 2.74419 
42482 3 14.5814 2.78252 
42486 3 15.5807 2.82086 
42491 3 16.5799 2.85919 
42481 3 14.0486 3.62874 
42485 3 15.0478 3.66707 
42490 3 16.0471 3.70541 
42484 3 14.515 4.51329 
42489 3 15.5142 4.55162 
42488 3 14.9814 5.39784 
ITEM: TIMESTEP
490000
ITEM: NUMBER OF ATOMS
15
ITEM: BOX BOUNDS ff fm pp
-4.1000000000000000e+01 4.1000000000000000e+01
0.0000000000000000e+00 2.0000000000000000e+02
-2.5000000000000000e-01 2.5000000000000000e-01
ITEM: ATOMS id type x y 
42478 3 13.4793 2.00208 