ITEM: TIMESTEP
0
ITEM: NUMBER OF ATOMS
15
ITEM: BOX BOUNDS ff fm pp
-4.1000000000000000e+01 4.1000000000000000e+01
0.0000000000000000e+00 2.0000000000000000e+02
-2.5000000000000000e-01 2.5000000000000000e-01
ITEM: ATOMS id type x y 
42524 6 -0.5 158.71 
42526 6 -1 159.576 
42529 6 -1.5 160.442 
42530 6 -0.5 160.442 
42533 6 -2 161.308 
42534 6 -1 161.308 
42523 6 0 157.844 
42525 6 0.5 158.71 
42527 6 0 159.576 
42528 6 1 159.576 
42531 6 0.5 160.442 
42532 6 1.5 160.442 
42535 6 0 161.308 
42536 6 1 161.308 
42537 6 2 161.308 
ITEM: TIMESTEP
10000
ITEM: NUMBER OF ATOMS
15
ITEM: BOX BOUNDS ff fm pp
-4.1000000000000000e+01 4.1000000000000000e+01
0.0000000000000000e+00 2.0000000000000000e+02
-2.5000000000000000e-01 2.5000000000000000e-01
ITEM: ATOMS id type x y 
42523 6 -1.71756e-17 157.724 
42524 6 -0.5 158.59 
42526 6 -1 159.456 
42527 6 -1.68359e-17 159.456 
42529 6 -1.5 160.322 
42530 6 -0.5 160.322 
42533 6 -2 161.188 
42534 6 -1 161.188 
42535 6 -1.64961e-17 161.188 
42525 6 0.5 158.59 
42528 6 1 159.456 
42531 6 0.5 160.322 
42532 6 1.5 160.322 
42536 6 1 161.188 
42537 6 2 161.188 
ITEM: TIMESTEP
20000
ITEM: NUMBER OF ATOMS
15
ITEM: BOX BOUNDS ff fm pp
-4.1000000000000000e+01 4.1000000000000000e+01
0.0000000000000000e+00 2.0000000000000000e+02
-2.5000000000000000e-01 2.5000000000000000e-01
ITEM: ATOMS id type x y 
42523 6 -6.94831e-17 157.356 
42524 6 -0.5 158.222 
42526 6 -1 159.088 
42527 6 -6.71544e-17 159.088 
42529 6 -1.5 159.954 
42530 6 -0.5 159.954 
42533 6 -2 160.82 
42534 6 -1 160.82 
42535 6 -6.48257e-17 160.82 
42525 6 0.5 158.222 
42528 6 1 159.088 
42531 6 0.5 159.954 
42532 6 1.5 159.954 
42536 6 1 160.82 
42537 6 2 160.82 
ITEM: TIMESTEP
30000
ITEM: NUMBER OF ATOMS
15
ITEM: BOX BOUNDS ff fm pp
-4.1000000000000000e+01 4.1000000000000000e+01
0.0000000000000000e+00 2.0000000000000000e+02
-2.5000000000000000e-01 2.5000000000000000e-01
ITEM: ATOMS id type x y 
42523 6 -1.53766e-16 156.738 
42524 6 -0.5 157.604 
42526 6 -1 158.47 
42527 6 -1.48431e-16 158.47 
42529 6 -1.5 159.336 
42530 6 -0.5 159.336 
42533 6 -2 160.202 
42534 6 -1 160.202 
42535 6 -1.43097e-16 160.202 
42525 6 0.5 157.604 
42528 6 1 158.47 
42531 6 0.5 159.336 
42532 6 1.5 159.336 
42536 6 1 160.202 
42537 6 2 160.202 
ITEM: TIMESTEP
40000
ITEM: NUMBER OF ATOMS
15
ITEM: BOX BOUNDS ff fm pp
-4.1000000000000000e+01 4.1000000000000000e+01
0.0000000000000000e+00 2.0000000000000000e+02
-2.5000000000000000e-01 2.5000000000000000e-01
ITEM: ATOMS id type x y 
42523 6 -2.79234e-16 155.87 
42524 6 -0.5 156.736 
42526 6 -1 157.602 
42527 6 -2.62967e-16 157.602 
42529 6 -1.5 158.468 
42530 6 -0.5 158.468 
42533 6 -2 159.334 
42534 6 -1 159.334 
42535 6 -2.46701e-16 159.334 
42525 6 0.5 156.736 
42528 6 1 157.602 
42531 6 0.5 158.468 
42532 6 1.5 158.468 
42536 6 1 159.334 
42537 6 2 159.334 
ITEM: TIMESTEP
50000
ITEM: NUMBER OF ATOMS
15
ITEM: BOX BOUNDS ff fm pp
-4.1000000000000000e+01 4.1000000000000000e+01
0.0000000000000000e+00 2.0000000000000000e+02
-2.5000000000000000e-01 2.5000000000000000e-01
ITEM: ATOMS id type x y 
42523 6 -4.59731e-16 154.752 
42524 6 -0.5 155.618 
42526 6 -1 156.484 
42527 6 -4.14222e-16 156.484 
42529 6 -1.5 157.35 
42530 6 -0.5 157.35 
42533 6 -2 158.216 
42534 6 -1 158.216 
42535 6 -3.68713e-16 158.216 
42525 6 0.5 155.618 
42528 6 1 156.484 
42531 6 0.5 157.35 
42532 6 1.5 157.35 
42536 6 1 158.216 
42537 6 2 158.216 
ITEM: TIMESTEP
60000
ITEM: NUMBER OF ATOMS
15
ITEM: BOX BOUNDS ff fm pp
-4.1000000000000000e+01 4.1000000000000000e+01
0.0000000000000000e+00 2.0000000000000000e+02
-2.5000000000000000e-01 2.5000000000000000e-01
ITEM: ATOMS id type x y 
42523 6 -6.74873e-16 153.384 
42524 6 -0.5 154.25 
42526 6 -1 155.116 
42527 6 -5.97099e-16 155.116 
42529 6 -1.5 155.982 
42530 6 -0.5 155.982 
42533 6 -2 156.848 
42534 6 -1 156.848 
42535 6 -5.19325e-16 156.848 
42525 6 0.5 154.25 
42528 6 1 155.116 
42531 6 0.5 155.982 
42532 6 1.5 155.982 
42536 6 1 156.848 
42537 6 2 156.848 
ITEM: TIMESTEP
70000
ITEM: NUMBER OF ATOMS
15
ITEM: BOX BOUNDS ff fm pp
-4.1000000000000000e+01 4.1000000000000000e+01
0.0000000000000000e+00 2.0000000000000000e+02
-2.5000000000000000e-01 2.5000000000000000e-01
ITEM: ATOMS id type x y 
42523 6 -9.09223e-16 151.766 
42524 6 -0.5 152.632 
42526 6 -1 153.498 
42527 6 -8.0774e-16 153.498 
42529 6 -1.5 154.364 
42530 6 -0.5 154.364 
42533 6 -2 155.23 
42534 6 -1 155.23 
42535 6 -7.06257e-16 155.23 
42525 6 0.5 152.632 
42528 6 1 153.498 
42531 6 0.5 154.364 
42532 6 1.5 154.364 
42536 6 1 155.23 
42537 6 2 155.23 
ITEM: TIMESTEP
80000
ITEM: NUMBER OF ATOMS
15
ITEM: BOX BOUNDS ff fm pp
-4.1000000000000000e+01 4.1000000000000000e+01
0.0000000000000000e+00 2.0000000000000000e+02
-2.5000000000000000e-01 2.5000000000000000e-01
ITEM: ATOMS id type x y 
42523 6 -1.17287e-15 149.898 
42524 6 -0.5 150.764 
42526 6 -1 151.63 
42527 6 -1.04867e-15 151.63 
42529 6 -1.5 152.496 
42530 6 -0.5 152.496 
42533 6 -2 153.362 
42534 6 -1 153.362 
42535 6 -9.24465e-16 153.362 
42525 6 0.5 150.764 
42528 6 1 151.63 
42531 6 0.5 152.496 
42532 6 1.5 152.496 
42536 6 1 153.362 
42537 6 2 153.362 
ITEM: TIMESTEP
90000
ITEM: NUMBER OF ATOMS
15
ITEM: BOX BOUNDS ff fm pp
-4.1000000000000000e+01 4.1000000000000000e+01
0.0000000000000000e+00 2.0000000000000000e+02
-2.5000000000000000e-01 2.5000000000000000e-01
ITEM: ATOMS id type x y 
42523 6 -1.46387e-15 147.78 
42524 6 -0.5 148.646 
42526 6 -1 149.512 
42527 6 -1.31939e-15 149.512 
42529 6 -1.5 150.378 
42530 6 -0.5 150.378 
42533 6 -2 151.244 
42534 6 -1 151.244 
42535 6 -1.17491e-15 151.244 
42525 6 0.5 148.646 
42528 6 1 149.512 
42531 6 0.5 150.378 
42532 6 1.5 150.378 
42536 6 1 151.244 
42537 6 2 151.244 
ITEM: TIMESTEP
100000
ITEM: NUMBER OF ATOMS
15
ITEM: BOX BOUNDS ff fm pp
-4.1000000000000000e+01 4.1000000000000000e+01
0.0000000000000000e+00 2.0000000000000000e+02
-2.5000000000000000e-01 2.5000000000000000e-01
ITEM: ATOMS id type x y 
42523 6 -1.74378e-15 145.412 
42524 6 -0.5 146.278 
42526 6 -1 147.144 
42527 6 -1.61031e-15 147.144 
42529 6 -1.5 148.01 
42530 6 -0.5 148.01 
42533 6 -2 148.876 
42534 6 -1 148.876 
42535 6 -1.47683e-15 148.876 
42525 6 0.5 146.278 
42528 6 1 147.144 
42531 6 0.5 148.01 
42532 6 1.5 148.01 
42536 6 1 148.876 
42537 6 2 148.876 
ITEM: TIMESTEP
110000
ITEM: NUMBER OF ATOMS
15
ITEM: BOX BOUNDS ff fm pp
-4.1000000000000000e+01 4.1000000000000000e+01
0.0000000000000000e+00 2.0000000000000000e+02
-2.5000000000000000e-01 2.5000000000000000e-01
ITEM: ATOMS id type x y 
42523 6 -2.05246e-15 142.794 
42524 6 -0.5 143.66 
42526 6 -1 144.526 
42527 6 -1.93138e-15 144.526 
42529 6 -1.5 145.392 
42530 6 -0.5 145.392 
42533 6 -2 146.258 
42534 6 -1 146.258 
42535 6 -1.81029e-15 146.258 
42525 6 0.5 143.66 
42528 6 1 144.526 
42531 6 0.5 145.392 
42532 6 1.5 145.392 
42536 6 1 146.258 
42537 6 2 146.258 
ITEM: TIMESTEP
120000
ITEM: NUMBER OF ATOMS
15
ITEM: BOX BOUNDS ff fm pp
-4.1000000000000000e+01 4.1000000000000000e+01
0.0000000000000000e+00 2.0000000000000000e+02
-2.5000000000000000e-01 2.5000000000000000e-01
ITEM: ATOMS id type x y 
42523 6 -2.39988e-15 139.925 
42524 6 -0.5 140.791 
42526 6 -1 141.657 
42527 6 -2.28509e-15 141.657 
42529 6 -1.5 142.523 
42530 6 -0.5 142.523 
42533 6 -2 143.389 
42534 6 -1 143.389 
42535 6 -2.1703e-15 143.389 
42525 6 0.5 140.791 
42528 6 1 141.657 
42531 6 0.5 142.523 
42532 6 1.5 142.523 
42536 6 1 143.389 
42537 6 2 143.389 
ITEM: TIMESTEP
130000
ITEM: NUMBER OF ATOMS
15
ITEM: BOX BOUNDS ff fm pp
-4.1000000000000000e+01 4.1000000000000000e+01
0.0000000000000000e+00 2.0000000000000000e+02
-2.5000000000000000e-01 2.5000000000000000e-01
ITEM: ATOMS id type x y 
42535 6 -2.56039e-15 140.271 
42523 6 -2.779e-15 136.807 
42524 6 -0.5 137.673 
42526 6 -1 138.539 
42527 6 -2.66969e-15 138.539 
42529 6 -1.5 139.405 
42530 6 -0.5 139.405 
42533 6 -2 140.271 
42534 6 -1 140.271 
42537 6 2 140.271 
42525 6 0.5 137.673 
42528 6 1 138.539 
42531 6 0.5 139.405 
42532 6 1.5 139.405 
42536 6 1 140.271 
ITEM: TIMESTEP
140000
ITEM: NUMBER OF ATOMS
15
ITEM: BOX BOUNDS ff fm pp
-4.1000000000000000e+01 4.1000000000000000e+01
0.0000000000000000e+00 2.0000000000000000e+02
-2.5000000000000000e-01 2.5000000000000000e-01
ITEM: ATOMS id type x y 
42523 6 -3.18292e-15 133.439 
42524 6 -0.5 134.305 
42526 6 -1 135.171 
42527 6 -3.08345e-15 135.171 
42529 6 -1.5 136.037 
42530 6 -0.5 136.037 
42533 6 -2 136.903 
42534 6 -1 136.903 
42535 6 -2.98399e-15 136.903 
42525 6 0.5 134.305 
42528 6 1 135.171 
42531 6 0.5 136.037 
42532 6 1.5 136.037 
42536 6 1 136.903 
42537 6 2 136.903 
ITEM: TIMESTEP
150000
ITEM: NUMBER OF ATOMS
15
ITEM: BOX BOUNDS ff fm pp
-4.1000000000000000e+01 4.1000000000000000e+01
0.0000000000000000e+00 2.0000000000000000e+02
-2.5000000000000000e-01 2.5000000000000000e-01
ITEM: ATOMS id type x y 
42523 6 -3.62866e-15 129.821 
42524 6 -0.5 130.687 
42526 6 -1 131.553 
42527 6 -3.53064e-15 131.553 
42529 6 -1.5 132.419 
42530 6 -0.5 132.419 
42533 6 -2 133.285 
42535 6 -3.43261e-15 133.285 
42534 6 -1 133.285 
42532 6 1.5 132.419 
42525 6 0.5 130.687 
42528 6 1 131.553 
42531 6 0.5 132.419 
42536 6 1 133.285 
42537 6 2 133.285 
ITEM: TIMESTEP
160000
ITEM: NUMBER OF ATOMS
15
ITEM: BOX BOUNDS ff fm pp
-4.1000000000000000e+01 4.1000000000000000e+01
0.0000000000000000e+00 2.0000000000000000e+02
-2.5000000000000000e-01 2.5000000000000000e-01
ITEM: ATOMS id type x y 
42523 6 -4.11754e-15 125.953 
42524 6 -0.5 126.819 
42526 6 -1 127.685 
42527 6 -4.01156e-15 127.685 
42529 6 -1.5 128.551 
42530 6 -0.5 128.551 
42533 6 -2 129.417 
42534 6 -1 129.417 
42535 6 -3.90558e-15 129.417 
42537 6 2 129.417 
42525 6 0.5 126.819 
42528 6 1 127.685 
42531 6 0.5 128.551 
42532 6 1.5 128.551 
42536 6 1 129.417 
ITEM: TIMESTEP
170000
ITEM: NUMBER OF ATOMS
15
ITEM: BOX BOUNDS ff fm pp
-4.1000000000000000e+01 4.1000000000000000e+01
0.0000000000000000e+00 2.0000000000000000e+02
-2.5000000000000000e-01 2.5000000000000000e-01
ITEM: ATOMS id type x y 
42524 6 -0.499994 122.771 
42526 6 -0.999996 123.637 
42529 6 -1.5 124.503 
42530 6 -0.499999 124.503 
42533 6 -2 125.369 
42534 6 -1 125.369 
42535 6 -8.01374e-07 125.369 
42523 6 8.15878e-06 121.905 
42525 6 0.500006 122.771 
42527 6 3.6787e-06 123.637 
42528 6 1 123.637 
42531 6 0.500001 124.503 
42532 6 1.5 124.503 
42536 6 0.999999 125.369 
42537 6 2 125.369 
ITEM: TIMESTEP
180000
ITEM: NUMBER OF ATOMS
15
ITEM: BOX BOUNDS ff fm pp
-4.1000000000000000e+01 4.1000000000000000e+01
0.0000000000000000e+00 2.0000000000000000e+02
-2.5000000000000000e-01 2.5000000000000000e-01
ITEM: ATOMS id type x y 
42524 6 -0.499932 118.543 
42526 6 -0.999958 119.409 
42529 6 -1.49998 120.275 
42530 6 -0.499983 120.275 
42533 6 -2.00001 121.141 
42534 6 -1.00001 121.141 
42535 6 -8.73116e-06 121.141 
42523 6 9.37218e-05 117.677 
42525 6 0.500068 118.543 
42527 6 4.24953e-05 119.409 
42528 6 1.00004 119.409 
42531 6 0.500017 120.275 
42532 6 1.50002 120.275 
42536 6 0.999991 121.141 
42537 6 1.99999 121.141 
ITEM: TIMESTEP
190000
ITEM: NUMBER OF ATOMS
15
ITEM: BOX BOUNDS ff fm pp
-4.1000000000000000e+01 4.1000000000000000e+01
0.0000000000000000e+00 2.0000000000000000e+02
-2.5000000000000000e-01 2.5000000000000000e-01
ITEM: ATOMS id type x y 
42524 6 -0.499904 114.065 
42526 6 -0.999909 114.931 
42529 6 -1.49991 115.797 
42530 6 -0.499914 115.797 
42533 6 -1.99992 116.663 
42534 6 -0.999919 116.663 
42523 6 0.000100567 113.199 
42525 6 0.500096 114.065 
42527 6 9.07955e-05 114.931 
42528 6 1.00009 114.931 
42531 6 0.500086 115.797 
42532 6 1.50009 115.797 
42535 6 8.10235e-05 116.663 
42536 6 1.00008 116.663 
42537 6 2.00008 116.663 
ITEM: TIMESTEP
200000
ITEM: NUMBER OF ATOMS
15
ITEM: BOX BOUNDS ff fm pp
-4.1000000000000000e+01 4.1000000000000000e+01
0.0000000000000000e+00 2.0000000000000000e+02
-2.5000000000000000e-01 2.5000000000000000e-01
ITEM: ATOMS id type x y 
42523 6 -0.000698856 108.489 
42524 6 -0.500233 109.355 
42526 6 -0.999768 110.221 
42529 6 -1.4993 111.087 
42530 6 -0.499303 111.087 
42533 6 -1.99884 111.954 
42534 6 -0.998837 111.953 
42525 6 0.499766 109.354 
42527 6 0.000231842 110.221 
42528 6 1.00023 110.22 
42531 6 0.500697 111.086 
42532 6 1.5007 111.086 
42535 6 0.00116254 111.953 
42536 6 1.00116 111.952 
42537 6 2.00116 111.952 
ITEM: TIMESTEP
210000
ITEM: NUMBER OF ATOMS
15
ITEM: BOX BOUNDS ff fm pp
-4.1000000000000000e+01 4.1000000000000000e+01
0.0000000000000000e+00 2.0000000000000000e+02
-2.5000000000000000e-01 2.5000000000000000e-01
ITEM: ATOMS id type x y 
42523 6 -0.00236639 103.623 
42524 6 -0.500888 104.49 
42526 6 -0.99941 105.357 
42529 6 -1.49793 106.224 
42530 6 -0.497934 106.222 
42533 6 -1.99645 107.091 
42534 6 -0.996456 107.089 
42525 6 0.49911 104.488 
42527 6 0.000588251 105.355 
42528 6 1.00059 105.354 
42531 6 0.502065 106.22 
42532 6 1.50206 106.219 
42535 6 0.00354289 107.087 
42536 6 1.00354 107.086 
42537 6 2.00354 107.084 
ITEM: TIMESTEP
220000
ITEM: NUMBER OF ATOMS
15
ITEM: BOX BOUNDS ff fm pp
-4.1000000000000000e+01 4.1000000000000000e+01
0.0000000000000000e+00 2.0000000000000000e+02
-2.5000000000000000e-01 2.5000000000000000e-01
ITEM: ATOMS id type x y 
42523 6 -0.00421301 98.5524 
42524 6 -0.501681 99.4199 
42526 6 -0.999149 100.287 
42529 6 -1.49662 101.155 
42530 6 -0.496621 101.152 
42533 6 -1.99408 102.022 
42534 6 -0.994089 102.019 
42525 6 0.498315 99.417 
42527 6 0.000847062 100.284 
42528 6 1.00084 100.281 
42531 6 0.503375 101.149 
42532 6 1.50337 101.146 
42535 6 0.00590713 102.016 
42536 6 1.0059 102.013 
42537 6 2.0059 102.011 
ITEM: TIMESTEP
230000
ITEM: NUMBER OF ATOMS
15
ITEM: BOX BOUNDS ff fm pp
-4.1000000000000000e+01 4.1000000000000000e+01
0.0000000000000000e+00 2.0000000000000000e+02
-2.5000000000000000e-01 2.5000000000000000e-01
ITEM: ATOMS id type x y 
42523 6 -0.00497708 93.2846 
42524 6 -0.502001 94.1523 
42526 6 -0.999025 95.02 
42529 6 -1.49605 95.8877 
42530 6 -0.496055 95.8843 
42533 6 -1.99307 96.7554 
42534 6 -0.993079 96.752 
42525 6 0.497993 94.1489 
42527 6 0.000968968 95.0166 
42528 6 1.00096 95.0132 
42531 6 0.503939 95.8809 
42532 6 1.50393 95.8774 
42535 6 0.00691501 96.7486 
42536 6 1.00691 96.7451 
42537 6 2.0069 96.7417 
ITEM: TIMESTEP
240000
ITEM: NUMBER OF ATOMS
15
ITEM: BOX BOUNDS ff fm pp
-4.1000000000000000e+01 4.1000000000000000e+01
0.0000000000000000e+00 2.0000000000000000e+02
-2.5000000000000000e-01 2.5000000000000000e-01
ITEM: ATOMS id type x y 
42523 6 -0.00616109 87.8415 
42524 6 -0.503551 88.709 
42526 6 -1.00094 89.5765 
42527 6 -0.000946269 89.5735 
42529 6 -1.49833 90.444 
42530 6 -0.498337 90.441 
42533 6 -1.99572 91.3115 
42534 6 -0.995727 91.3085 
42525 6 0.496444 88.706 
42528 6 0.999049 89.5705 
42531 6 0.501659 90.438 
42532 6 1.50165 90.435 
42535 6 0.00426855 91.3055 
42536 6 1.00426 91.3025 
42537 6 2.00426 91.2995 
ITEM: TIMESTEP
250000
ITEM: NUMBER OF ATOMS
15
ITEM: BOX BOUNDS ff fm pp
-4.1000000000000000e+01 4.1000000000000000e+01
0.0000000000000000e+00 2.0000000000000000e+02
-2.5000000000000000e-01 2.5000000000000000e-01
ITEM: ATOMS id type x y 
42523 6 -0.00859582 82.216 
42524 6 -0.506012 83.0835 
42526 6 -1.00343 83.951 
42527 6 -0.00343302 83.948 
42529 6 -1.50084 84.8184 
42530 6 -0.500849 84.8155 
42533 6 -1.99826 85.6859 
42534 6 -0.998266 85.683 
42525 6 0.493983 83.0805 
42528 6 0.996563 83.945 
42531 6 0.499146 84.8125 
42532 6 1.49914 84.8095 
42535 6 0.00172978 85.68 
42536 6 1.00173 85.677 
42537 6 2.00172 85.674 
ITEM: TIMESTEP
260000
ITEM: NUMBER OF ATOMS
15
ITEM: BOX BOUNDS ff fm pp
-4.1000000000000000e+01 4.1000000000000000e+01
0.0000000000000000e+00 2.0000000000000000e+02
-2.5000000000000000e-01 2.5000000000000000e-01
ITEM: ATOMS id type x y 
42523 6 -0.0146487 76.4397 
42524 6 -0.508677 77.3091 
42526 6 -1.00271 78.1785 
42527 6 -0.0027298 78.1716 
42529 6 -1.49673 79.0479 
42530 6 -0.496759 79.041 
42533 6 -1.99076 79.9173 
42534 6 -0.990787 79.9105 
42525 6 0.491299 77.3022 
42528 6 0.997247 78.1647 
42531 6 0.503218 79.0342 
42532 6 1.50319 79.0273 
42535 6 0.0091891 79.9036 
42536 6 1.00917 79.8967 
42537 6 2.00914 79.8898 
ITEM: TIMESTEP
270000
ITEM: NUMBER OF ATOMS
15
ITEM: BOX BOUNDS ff fm pp
-4.1000000000000000e+01 4.1000000000000000e+01
0.0000000000000000e+00 2.0000000000000000e+02
-2.5000000000000000e-01 2.5000000000000000e-01
ITEM: ATOMS id type x y 
42523 6 -0.013923 70.5087 
42524 6 -0.505645 71.3794 
42526 6 -0.997366 72.2501 
42529 6 -1.48909 73.1209 
42530 6 -0.489134 73.1113 
42533 6 -1.98081 73.9916 
42534 6 -0.980855 73.9821 
42525 6 0.49431 71.3699 
42527 6 0.00258812 72.2406 
42528 6 1.00254 72.2311 
42531 6 0.510821 73.1018 
42532 6 1.51078 73.0923 
42535 6 0.0190993 73.9725 
42536 6 1.01905 73.963 
42537 6 2.01901 73.9535 
ITEM: TIMESTEP
280000
ITEM: NUMBER OF ATOMS
15
ITEM: BOX BOUNDS ff fm pp
-4.1000000000000000e+01 4.1000000000000000e+01
0.0000000000000000e+00 2.0000000000000000e+02
-2.5000000000000000e-01 2.5000000000000000e-01
ITEM: ATOMS id type x y 
42524 6 -0.490927 65.3136 
42526 6 -0.982648 66.1843 
42529 6 -1.47437 67.055 
42530 6 -0.474414 67.0455 
42533 6 -1.96609 67.9258 
42534 6 -0.966134 67.9162 
42525 6 0.509027 65.3041 
42528 6 1.01726 66.1652 
42523 6 0.000793054 64.4429 
42527 6 0.0173066 66.1748 
42531 6 0.525541 67.036 
42532 6 1.5255 67.0264 
42536 6 1.03377 67.8972 
42537 6 2.03373 67.8876 
42535 6 0.0338201 67.9067 
ITEM: TIMESTEP
290000
ITEM: NUMBER OF ATOMS
15
ITEM: BOX BOUNDS ff fm pp
-4.1000000000000000e+01 4.1000000000000000e+01
0.0000000000000000e+00 2.0000000000000000e+02
-2.5000000000000000e-01 2.5000000000000000e-01
ITEM: ATOMS id type x y 
42524 6 -0.462909 59.1237 
42526 6 -0.958964 59.992 
42529 6 -1.45502 60.8603 
42530 6 -0.455028 60.8557 
42533 6 -1.95107 61.7285 
42534 6 -0.951082 61.724 
42523 6 0.0331447 58.2555 
42525 6 0.53708 59.1192 
42527 6 0.0410261 59.9875 
42528 6 1.04102 59.9829 
42531 6 0.544962 60.8512 
42532 6 1.54495 60.8466 
42535 6 0.0489075 61.7194 
42536 6 1.0489 61.7149 
42537 6 2.04889 61.7103 
ITEM: TIMESTEP
300000
ITEM: NUMBER OF ATOMS
15
ITEM: BOX BOUNDS ff fm pp
-4.1000000000000000e+01 4.1000000000000000e+01
0.0000000000000000e+00 2.0000000000000000e+02
-2.5000000000000000e-01 2.5000000000000000e-01
ITEM: ATOMS id type x y 
42524 6 -0.427803 52.7937 
42526 6 -0.932545 53.657 
42529 6 -1.43729 54.5202 
42530 6 -0.437302 54.5257 
42533 6 -1.94203 55.3835 
42534 6 -0.942044 55.3889 
42523 6 0.0769385 51.9305 
42525 6 0.572182 52.7992 
42527 6 0.0674398 53.6625 
42528 6 1.06742 53.6679 
42531 6 0.562683 54.5312 
42532 6 1.56267 54.5367 
42535 6 0.0579411 55.3944 
42536 6 1.05793 55.3999 
42537 6 2.05791 55.4054 
ITEM: TIMESTEP
310000
ITEM: NUMBER OF ATOMS
15
ITEM: BOX BOUNDS ff fm pp
-4.1000000000000000e+01 4.1000000000000000e+01
0.0000000000000000e+00 2.0000000000000000e+02
-2.5000000000000000e-01 2.5000000000000000e-01
ITEM: ATOMS id type x y 
42524 6 -0.38349 46.37 
42526 6 -0.901156 47.2255 
42529 6 -1.41882 48.0811 
42530 6 -0.419033 48.1016 
42533 6 -1.93649 48.9366 
42534 6 -0.936699 48.9572 
42523 6 0.134175 45.5144 
42525 6 0.616299 46.3905 
42527 6 0.098633 47.2461 
42528 6 1.09842 47.2666 
42531 6 0.580757 48.1221 
42532 6 1.58055 48.1427 
42535 6 0.0630907 48.9777 
42536 6 1.06288 48.9982 
42537 6 2.06267 49.0187 
ITEM: TIMESTEP
320000
ITEM: NUMBER OF ATOMS
15
ITEM: BOX BOUNDS ff fm pp
-4.1000000000000000e+01 4.1000000000000000e+01
0.0000000000000000e+00 2.0000000000000000e+02
-2.5000000000000000e-01 2.5000000000000000e-01
ITEM: ATOMS id type x y 
42524 6 -0.332851 39.8231 
42526 6 -0.864423 40.6701 
42529 6 -1.39599 41.5171 
42530 6 -0.396674 41.554 
42533 6 -1.92757 42.3641 
42534 6 -0.928245 42.401 
42523 6 0.19872 38.9762 
42525 6 0.666469 39.86 
42527 6 0.134898 40.707 
42528 6 1.13422 40.7438 
42531 6 0.602647 41.5908 
42532 6 1.60197 41.6277 
42535 6 0.0710756 42.4378 
42536 6 1.0704 42.4747 
42537 6 2.06972 42.5115 
ITEM: TIMESTEP
330000
ITEM: NUMBER OF ATOMS
15
ITEM: BOX BOUNDS ff fm pp
-4.1000000000000000e+01 4.1000000000000000e+01
0.0000000000000000e+00 2.0000000000000000e+02
-2.5000000000000000e-01 2.5000000000000000e-01
ITEM: ATOMS id type x y 
42524 6 -0.27977 33.1435 
42526 6 -0.824337 33.9822 
42529 6 -1.3689 34.8209 
42530 6 -0.37027 34.8731 
42533 6 -1.91347 35.6596 
42534 6 -0.914837 35.7118 
42523 6 0.264797 32.3048 
42525 6 0.718864 33.1958 
42527 6 0.174297 34.0344 
42528 6 1.17293 34.0867 
42531 6 0.628364 34.9254 
42532 6 1.627 34.9776 
42535 6 0.0837972 35.7641 
42536 6 1.08243 35.8163 
42537 6 2.08107 35.8686 
ITEM: TIMESTEP
340000
ITEM: NUMBER OF ATOMS
15
ITEM: BOX BOUNDS ff fm pp
-4.1000000000000000e+01 4.1000000000000000e+01
0.0000000000000000e+00 2.0000000000000000e+02
-2.5000000000000000e-01 2.5000000000000000e-01
ITEM: ATOMS id type x y 
42524 6 -0.229543 26.3912 
42526 6 -0.792134 27.2179 
42529 6 -1.35472 28.0446 
42530 6 -0.357456 28.1185 
42533 6 -1.91732 28.8713 
42534 6 -0.920047 28.9452 
42523 6 0.333049 25.5645 
42525 6 0.767727 26.465 
42527 6 0.205135 27.2918 
42528 6 1.2024 27.3656 
42531 6 0.639813 28.1923 
42532 6 1.63708 28.2662 
42535 6 0.0772221 29.019 
42536 6 1.07449 29.0929 
42537 6 2.07176 29.1667 
ITEM: TIMESTEP
350000
ITEM: NUMBER OF ATOMS
15
ITEM: BOX BOUNDS ff fm pp
-4.1000000000000000e+01 4.1000000000000000e+01
0.0000000000000000e+00 2.0000000000000000e+02
-2.5000000000000000e-01 2.5000000000000000e-01
ITEM: ATOMS id type x y 
42524 6 -0.187581 19.4713 
42526 6 -0.758192 20.2925 
42529 6 -1.3288 21.1137 
42530 6 -0.332301 21.1972 
42533 6 -1.89942 21.9349 
42534 6 -0.902912 22.0184 
42523 6 0.383031 18.6501 
42525 6 0.808922 19.5548 
42527 6 0.238311 20.376 
42528 6 1.23481 20.4596 
42531 6 0.664202 21.2808 
42532 6 1.66071 21.3643 
42535 6 0.0935908 22.102 
42536 6 1.09009 22.1855 
42537 6 2.0866 22.2691 
ITEM: TIMESTEP
360000
ITEM: NUMBER OF ATOMS
15
ITEM: BOX BOUNDS ff fm pp
-4.1000000000000000e+01 4.1000000000000000e+01
0.0000000000000000e+00 2.0000000000000000e+02
-2.5000000000000000e-01 2.5000000000000000e-01
ITEM: ATOMS id type x y 
42524 6 -0.04029 12.5892 
42526 6 -0.655633 13.3775 
42529 6 -1.27098 14.1657 
42530 6 -0.280653 14.3045 
42533 6 -1.88632 14.9539 
42534 6 -0.895996 15.0927 
42523 6 0.575053 11.801 
42525 6 0.950034 12.728 
42527 6 0.33469 13.5162 
42528 6 1.32501 13.655 
42531 6 0.709671 14.4433 
42532 6 1.69999 14.582 
42535 6 0.0943274 15.2315 
42536 6 1.08465 15.3703 
42537 6 2.07497 15.509 
ITEM: TIMESTEP
370000
ITEM: NUMBER OF ATOMS
15
ITEM: BOX BOUNDS ff fm pp
-4.1000000000000000e+01 4.1000000000000000e+01
0.0000000000000000e+00 2.0000000000000000e+02
-2.5000000000000000e-01 2.5000000000000000e-01
ITEM: ATOMS id type x y 
42533 6 -0.733309 9.2776 
42523 6 2.8154 7.43207 
42526 6 1.04104 8.35484 
42524 6 1.92822 7.89346 
42525 6 2.7714 8.43108 
42527 6 1.88423 8.89247 
42530 6 0.99705 9.35385 
42528 6 2.72741 9.43009 
42531 6 1.84023 9.89148 
42535 6 0.953055 10.3529 
42532 6 2.68341 10.4291 
42536 6 1.79624 10.8905 
42537 6 2.63942 11.4281 
42529 6 0.153868 8.81622 
42534 6 0.109873 9.81523 
ITEM: TIMESTEP
380000
ITEM: NUMBER OF ATOMS
15
ITEM: BOX BOUNDS ff fm pp
-4.1000000000000000e+01 4.1000000000000000e+01
0.0000000000000000e+00 2.0000000000000000e+02
-2.5000000000000000e-01 2.5000000000000000e-01
ITEM: ATOMS id type x y 
42533 6 3.62866 7.81442 
42529 6 4.62571 7.89088 
42526 6 5.62276 7.96735 
42524 6 6.61981 8.04382 
42523 6 7.61686 8.12028 
42534 6 4.06098 8.71613 
42530 6 5.05803 8.7926 
42527 6 6.05508 8.86907 
42525 6 7.05213 8.94553 
42535 6 4.49331 9.61785 
42531 6 5.49036 9.69432 
42528 6 6.48741 9.77079 
42536 6 4.92563 10.5196 
42532 6 5.92268 10.596 
42537 6 5.35796 11.4213 
ITEM: TIMESTEP
390000
ITEM: NUMBER OF ATOMS
15
ITEM: BOX BOUNDS ff fm pp
-4.1000000000000000e+01 4.1000000000000000e+01
0.0000000000000000e+00 2.0000000000000000e+02
-2.5000000000000000e-01 2.5000000000000000e-01
ITEM: ATOMS id type x y 
42533 6 8.3059 6.49733 
42529 6 9.12525 7.07058 
42534 6 8.21914 7.49356 
42526 6 9.94461 7.64383 
42530 6 9.0385 8.06681 
42524 6 10.764 8.21707 
42535 6 8.13238 8.48979 
42527 6 9.85785 8.64006 
42523 6 11.5833 8.79032 
42536 6 8.04563 9.48602 
42531 6 8.95174 9.06304 
42525 6 10.6772 9.2133 
42532 6 8.86498 10.0593 
42528 6 9.7711 9.63629 
42537 6 7.95887 10.4823 
ITEM: TIMESTEP
400000
ITEM: NUMBER OF ATOMS
15
ITEM: BOX BOUNDS ff fm pp
-4.1000000000000000e+01 4.1000000000000000e+01
0.0000000000000000e+00 2.0000000000000000e+02
-2.5000000000000000e-01 2.5000000000000000e-01
ITEM: ATOMS id type x y 
42533 6 13.0559 5.53593 
42534 6 12.4886 6.35947 
42529 6 13.4854 6.43895 
42535 6 11.9213 7.183 
42530 6 12.9181 7.26249 
42526 6 13.915 7.34197 
42536 6 11.3541 8.00654 
42531 6 12.3509 8.08602 
42527 6 13.3477 8.1655 
42524 6 14.3445 8.24499 
42537 6 10.7868 8.83007 
42532 6 11.7836 8.90956 
42528 6 12.7804 8.98904 
42525 6 13.7772 9.06852 
42523 6 14.7741 9.14801 
ITEM: TIMESTEP
410000
ITEM: NUMBER OF ATOMS
15
ITEM: BOX BOUNDS ff fm pp
-4.1000000000000000e+01 4.1000000000000000e+01
0.0000000000000000e+00 2.0000000000000000e+02
-2.5000000000000000e-01 2.5000000000000000e-01
ITEM: ATOMS id type x y 
42533 6 15.3548 4.86338 
42534 6 14.8518 5.72764 
42529 6 15.8517 5.73114 
42535 6 14.3487 6.59191 
42530 6 15.3487 6.59541 
42526 6 16.3487 6.5989 
42536 6 13.8457 7.45618 
42531 6 14.8457 7.45967 
42527 6 15.8456 7.46317 
42524 6 16.8456 7.46667 
42537 6 13.3427 8.32044 
42532 6 14.3426 8.32394 
42528 6 15.3426 8.32743 
42525 6 16.3426 8.33093 
42523 6 17.3426 8.33443 
ITEM: TIMESTEP
420000
ITEM: NUMBER OF ATOMS
15
ITEM: BOX BOUNDS ff fm pp
-4.1000000000000000e+01 4.1000000000000000e+01
0.0000000000000000e+00 2.0000000000000000e+02
-2.5000000000000000e-01 2.5000000000000000e-01
ITEM: ATOMS id type x y 
42533 6 17.3817 4.02448 
42534 6 16.9914 4.94513 
42529 6 17.9839 4.82287 
42535 6 16.601 5.86579 
42530 6 17.5935 5.74352 
42526 6 18.586 5.62126 
42524 6 19.1881 6.41965 
42536 6 16.2106 6.78645 
42531 6 17.2031 6.66418 
42527 6 18.1956 6.54192 
42537 6 15.8203 7.70711 
42532 6 16.8127 7.58484 
42528 6 17.8052 7.46257 
42525 6 18.7977 7.34031 
42523 6 19.7902 7.21804 
ITEM: TIMESTEP
430000
ITEM: NUMBER OF ATOMS
15
ITEM: BOX BOUNDS ff fm pp
-4.1000000000000000e+01 4.1000000000000000e+01
0.0000000000000000e+00 2.0000000000000000e+02
-2.5000000000000000e-01 2.5000000000000000e-01
ITEM: ATOMS id type x y 
42533 6 19.4264 2.9962 
42534 6 19.1416 3.9548 
42529 6 20.1141 3.72211 
42530 6 19.8293 4.68071 
42526 6 20.8019 4.44802 
42535 6 18.8568 4.91339 
42524 6 21.4896 5.17393 
42536 6 18.572 5.87198 
42531 6 19.5446 5.6393 
42527 6 20.5171 5.40662 
42523 6 22.1774 5.89985 
42528 6 20.2323 6.36521 
42525 6 21.2049 6.13253 
42537 6 18.2873 6.83058 
42532 6 19.2598 6.5979 
ITEM: TIMESTEP
440000
ITEM: NUMBER OF ATOMS
15
ITEM: BOX BOUNDS ff fm pp
-4.1000000000000000e+01 4.1000000000000000e+01
0.0000000000000000e+00 2.0000000000000000e+02
-2.5000000000000000e-01 2.5000000000000000e-01
ITEM: ATOMS id type x y 
42533 6 21.9114 2.30408 
42534 6 21.3783 3.15011 
42529 6 22.3775 3.18879 
42535 6 20.8452 3.99614 
42530 6 21.8444 4.03482 
42526 6 22.8436 4.0735 
42536 6 20.312 4.84218 
42531 6 21.3113 4.88085 
42527 6 22.3105 4.91953 
42524 6 23.3097 4.95821 
42537 6 19.7789 5.68821 
42532 6 20.7781 5.72688 
42528 6 21.7774 5.76556 
42525 6 22.7766 5.80424 
42523 6 23.7758 5.84292 
ITEM: TIMESTEP
450000
ITEM: NUMBER OF ATOMS
15
ITEM: BOX BOUNDS ff fm pp
-4.1000000000000000e+01 4.1000000000000000e+01
0.0000000000000000e+00 2.0000000000000000e+02
-2.5000000000000000e-01 2.5000000000000000e-01
ITEM: ATOMS id type x y 
42533 6 24.3972 1.56968 
42534 6 23.6465 2.23032 
42535 6 22.8958 2.89097 
42529 6 24.594 2.5501 
42530 6 23.8433 3.21075 
42526 6 24.7907 3.53053 
42536 6 22.1451 3.55162 
42531 6 23.0926 3.8714 
42537 6 21.3944 4.21227 
42532 6 22.3419 4.53205 
42527 6 24.04 4.19118 
42524 6 24.9875 4.51096 
42528 6 23.2893 4.85182 
42525 6 24.2368 5.1716 
42523 6 25.1843 5.49138 
ITEM: TIMESTEP
460000
ITEM: NUMBER OF ATOMS
15
ITEM: BOX BOUNDS ff fm pp
-4.1000000000000000e+01 4.1000000000000000e+01
0.0000000000000000e+00 2.0000000000000000e+02
-2.5000000000000000e-01 2.5000000000000000e-01
ITEM: ATOMS id type x y 
42533 6 26.8208 0.766651 
42535 6 25.0048 1.60473 
42534 6 25.9128 1.18569 
42536 6 24.0969 2.02376 
42530 6 25.8217 2.18151 
42529 6 26.7297 1.76247 
42537 6 23.1889 2.4428 
42531 6 24.9137 2.60055 
42526 6 26.6386 2.75829 
42532 6 24.0058 3.01958 
42527 6 25.7306 3.17733 
42528 6 24.8226 3.59637 
42524 6 26.5475 3.75411 
42525 6 25.6395 4.17315 
42523 6 26.4564 4.74993 
ITEM: TIMESTEP
470000
ITEM: NUMBER OF ATOMS
15
ITEM: BOX BOUNDS ff fm pp
-4.1000000000000000e+01 4.1000000000000000e+01
0.0000000000000000e+00 2.0000000000000000e+02
-2.5000000000000000e-01 2.5000000000000000e-01
ITEM: ATOMS id type x y 
42537 6 25.6522 0.700464 
42536 6 26.6174 0.961934 
42535 6 27.5827 1.2234 
42532 6 25.9084 1.66707 
42534 6 28.5479 1.48487 
42533 6 29.5131 1.74634 
42531 6 26.8736 1.92854 
42530 6 27.8388 2.19001 
42529 6 28.804 2.45148 
42528 6 26.1646 2.63368 
42527 6 27.1298 2.89515 
42525 6 26.4207 3.60029 
42526 6 28.095 3.15662 
42524 6 27.386 3.86176 
42523 6 26.6769 4.5669 
ITEM: TIMESTEP
480000
ITEM: NUMBER OF ATOMS
15
ITEM: BOX BOUNDS ff fm pp
-4.1000000000000000e+01 4.1000000000000000e+01
0.0000000000000000e+00 2.0000000000000000e+02
-2.5000000000000000e-01 2.5000000000000000e-01
ITEM: ATOMS id type x y 
42537 6 27.2547 1.87937 
42536 6 28.2487 1.98896 
42535 6 29.2427 2.09856 
42534 6 30.2367 2.20815 
42533 6 31.2307 2.31775 
42532 6 27.6568 2.79495 
42531 6 28.6508 2.90454 
42530 6 29.6448 3.01414 
42529 6 30.6388 3.12373 
42528 6 28.0589 3.71053 
42527 6 29.0529 3.82012 
42526 6 30.0469 3.92972 
42525 6 28.461 4.62611 
42524 6 29.455 4.73571 
42523 6 28.8631 5.54169 
ITEM: TIMESTEP
490000
ITEM: NUMBER OF ATOMS
15
ITEM: BOX BOUNDS ff fm pp
-4.1000000000000000e+01 4.1000000000000000e+01
0.0000000000000000e+00 2.0000000000000000e+02
-2.5000000000000000e-01 2.5000000000000000e-01
ITEM: ATOMS id type x y 
42537 6 28.7024 2.65462 
42536 6 29.7023 2.64114 
42535 6 30.7022 2.62766 
42534 6 31.7021 2.61419 
42533 6 32.702 2.60071 
42532 6 29.214 3.51381 
42531 6 30.2139 3.50033 
42530 6 31.2138 3.48685 