ITEM: TIMESTEP
0
ITEM: NUMBER OF ATOMS
15
ITEM: BOX BOUNDS ff fm pp
-4.1000000000000000e+01 4.1000000000000000e+01
0.0000000000000000e+00 2.0000000000000000e+02
-2.5000000000000000e-01 2.5000000000000000e-01
ITEM: ATOMS id type x y 
42494 4 -0.5 149.788 
42496 4 -1 150.654 
42499 4 -1.5 151.52 
42500 4 -0.5 151.52 
42503 4 -2 152.386 
42504 4 -1 152.386 
42493 4 0 148.922 
42495 4 0.5 149.788 
42497 4 0 150.654 
42498 4 1 150.654 
42501 4 0.5 151.52 
42502 4 1.5 151.52 
42505 4 0 152.386 
42506 4 1 152.386 
42507 4 2 152.386 
ITEM: TIMESTEP
10000
ITEM: NUMBER OF ATOMS
15
ITEM: BOX BOUNDS ff fm pp
-4.1000000000000000e+01 4.1000000000000000e+01
0.0000000000000000e+00 2.0000000000000000e+02
-2.5000000000000000e-01 2.5000000000000000e-01
ITEM: ATOMS id type x y 
42493 4 -1.88951e-17 148.797 
42494 4 -0.5 149.663 
42496 4 -1 150.529 
42497 4 -1.46021e-17 150.529 
42499 4 -1.5 151.395 
42500 4 -0.5 151.395 
42503 4 -2 152.261 
42504 4 -1 152.261 
42505 4 -1.0309e-17 152.261 
42495 4 0.5 149.663 
42498 4 1 150.529 
42501 4 0.5 151.395 
42502 4 1.5 151.395 
42506 4 1 152.261 
42507 4 2 152.261 
ITEM: TIMESTEP
20000
ITEM: NUMBER OF ATOMS
15
ITEM: BOX BOUNDS ff fm pp
-4.1000000000000000e+01 4.1000000000000000e+01
0.0000000000000000e+00 2.0000000000000000e+02
-2.5000000000000000e-01 2.5000000000000000e-01
ITEM: ATOMS id type x y 
42493 4 -7.66067e-17 148.422 
42494 4 -0.5 149.288 
42496 4 -1 150.154 
42497 4 -5.94345e-17 150.154 
42499 4 -1.5 151.02 
42500 4 -0.5 151.02 
42503 4 -2 151.886 
42504 4 -1 151.886 
42505 4 -4.22622e-17 151.886 
42495 4 0.5 149.288 
42498 4 1 150.154 
42501 4 0.5 151.02 
42502 4 1.5 151.02 
42506 4 1 151.886 
42507 4 2 151.886 
ITEM: TIMESTEP
30000
ITEM: NUMBER OF ATOMS
15
ITEM: BOX BOUNDS ff fm pp
-4.1000000000000000e+01 4.1000000000000000e+01
0.0000000000000000e+00 2.0000000000000000e+02
-2.5000000000000000e-01 2.5000000000000000e-01
ITEM: ATOMS id type x y 
42493 4 -1.86677e-16 147.797 
42494 4 -0.5 148.663 
42496 4 -1 149.529 
42497 4 -1.40308e-16 149.529 
42499 4 -1.5 150.395 
42500 4 -0.5 150.395 
42503 4 -2 151.261 
42504 4 -1 151.261 
42505 4 -9.39383e-17 151.261 
42495 4 0.5 148.663 
42498 4 1 149.529 
42501 4 0.5 150.395 
42502 4 1.5 150.395 
42506 4 1 151.261 
42507 4 2 151.261 
ITEM: TIMESTEP
40000
ITEM: NUMBER OF ATOMS
15
ITEM: BOX BOUNDS ff fm pp
-4.1000000000000000e+01 4.1000000000000000e+01
0.0000000000000000e+00 2.0000000000000000e+02
-2.5000000000000000e-01 2.5000000000000000e-01
ITEM: ATOMS id type x y 
42493 4 -3.36655e-16 146.922 
42494 4 -0.5 147.788 
42496 4 -1 148.654 
42497 4 -2.5412e-16 148.654 
42499 4 -1.5 149.52 
42500 4 -0.5 149.52 
42503 4 -2 150.386 
42504 4 -1 150.386 
42505 4 -1.71584e-16 150.386 
42495 4 0.5 147.788 
42498 4 1 148.654 
42501 4 0.5 149.52 
42502 4 1.5 149.52 
42506 4 1 150.386 
42507 4 2 150.386 
ITEM: TIMESTEP
50000
ITEM: NUMBER OF ATOMS
15
ITEM: BOX BOUNDS ff fm pp
-4.1000000000000000e+01 4.1000000000000000e+01
0.0000000000000000e+00 2.0000000000000000e+02
-2.5000000000000000e-01 2.5000000000000000e-01
ITEM: ATOMS id type x y 
42493 4 -5.15946e-16 145.797 
42494 4 -0.5 146.663 
42496 4 -1 147.529 
42497 4 -3.98222e-16 147.529 
42499 4 -1.5 148.395 
42500 4 -0.5 148.395 
42503 4 -2 149.261 
42504 4 -1 149.261 
42505 4 -2.80497e-16 149.261 
42495 4 0.5 146.663 
42498 4 1 147.529 
42501 4 0.5 148.395 
42502 4 1.5 148.395 
42506 4 1 149.261 
42507 4 2 149.261 
ITEM: TIMESTEP
60000
ITEM: NUMBER OF ATOMS
15
ITEM: BOX BOUNDS ff fm pp
-4.1000000000000000e+01 4.1000000000000000e+01
0.0000000000000000e+00 2.0000000000000000e+02
-2.5000000000000000e-01 2.5000000000000000e-01
ITEM: ATOMS id type x y 
42493 4 -7.27431e-16 144.421 
42494 4 -0.5 145.287 
42496 4 -1 146.153 
42497 4 -5.73333e-16 146.153 
42499 4 -1.5 147.019 
42500 4 -0.5 147.019 
42503 4 -2 147.885 
42504 4 -1 147.885 
42505 4 -4.19236e-16 147.885 
42495 4 0.5 145.287 
42498 4 1 146.153 
42501 4 0.5 147.019 
42502 4 1.5 147.019 
42506 4 1 147.885 
42507 4 2 147.885 
ITEM: TIMESTEP
70000
ITEM: NUMBER OF ATOMS
15
ITEM: BOX BOUNDS ff fm pp
-4.1000000000000000e+01 4.1000000000000000e+01
0.0000000000000000e+00 2.0000000000000000e+02
-2.5000000000000000e-01 2.5000000000000000e-01
ITEM: ATOMS id type x y 
42493 4 -9.50535e-16 142.796 
42494 4 -0.5 143.662 
42496 4 -1 144.528 
42497 4 -7.74311e-16 144.528 
42499 4 -1.5 145.394 
42500 4 -0.5 145.394 
42503 4 -2 146.26 
42504 4 -1 146.26 
42505 4 -5.98087e-16 146.26 
42495 4 0.5 143.662 
42498 4 1 144.528 
42501 4 0.5 145.394 
42502 4 1.5 145.394 
42506 4 1 146.26 
42507 4 2 146.26 
ITEM: TIMESTEP
80000
ITEM: NUMBER OF ATOMS
15
ITEM: BOX BOUNDS ff fm pp
-4.1000000000000000e+01 4.1000000000000000e+01
0.0000000000000000e+00 2.0000000000000000e+02
-2.5000000000000000e-01 2.5000000000000000e-01
ITEM: ATOMS id type x y 
42493 4 -1.2033e-15 140.921 
42494 4 -0.5 141.787 
42496 4 -1 142.653 
42497 4 -1.00567e-15 142.653 
42499 4 -1.5 143.519 
42500 4 -0.5 143.519 
42503 4 -2 144.385 
42504 4 -1 144.385 
42505 4 -8.0803e-16 144.385 
42495 4 0.5 141.787 
42498 4 1 142.653 
42501 4 0.5 143.519 
42502 4 1.5 143.519 
42506 4 1 144.385 
42507 4 2 144.385 
ITEM: TIMESTEP
90000
ITEM: NUMBER OF ATOMS
15
ITEM: BOX BOUNDS ff fm pp
-4.1000000000000000e+01 4.1000000000000000e+01
0.0000000000000000e+00 2.0000000000000000e+02
-2.5000000000000000e-01 2.5000000000000000e-01
ITEM: ATOMS id type x y 
42493 4 -1.49894e-15 138.796 
42494 4 -0.5 139.662 
42496 4 -1 140.528 
42497 4 -1.2707e-15 140.528 
42499 4 -1.5 141.394 
42500 4 -0.5 141.394 
42503 4 -2 142.26 
42504 4 -1 142.26 
42505 4 -1.04246e-15 142.26 
42495 4 0.5 139.662 
42498 4 1 140.528 
42501 4 0.5 141.394 
42502 4 1.5 141.394 
42506 4 1 142.26 
42507 4 2 142.26 
ITEM: TIMESTEP
100000
ITEM: NUMBER OF ATOMS
15
ITEM: BOX BOUNDS ff fm pp
-4.1000000000000000e+01 4.1000000000000000e+01
0.0000000000000000e+00 2.0000000000000000e+02
-2.5000000000000000e-01 2.5000000000000000e-01
ITEM: ATOMS id type x y 
42493 4 -1.79985e-15 136.421 
42494 4 -0.5 137.287 
42496 4 -1 138.153 
42497 4 -1.56001e-15 138.153 
42499 4 -1.5 139.019 
42500 4 -0.5 139.019 
42503 4 -2 139.885 
42504 4 -1 139.885 
42505 4 -1.32018e-15 139.885 
42495 4 0.5 137.287 
42498 4 1 138.153 
42501 4 0.5 139.019 
42502 4 1.5 139.019 
42506 4 1 139.885 
42507 4 2 139.885 
ITEM: TIMESTEP
110000
ITEM: NUMBER OF ATOMS
15
ITEM: BOX BOUNDS ff fm pp
-4.1000000000000000e+01 4.1000000000000000e+01
0.0000000000000000e+00 2.0000000000000000e+02
-2.5000000000000000e-01 2.5000000000000000e-01
ITEM: ATOMS id type x y 
42493 4 -2.08895e-15 133.796 
42494 4 -0.5 134.662 
42496 4 -1 135.528 
42497 4 -1.86934e-15 135.528 
42499 4 -1.5 136.394 
42500 4 -0.5 136.394 
42503 4 -2 137.26 
42504 4 -1 137.26 
42505 4 -1.64972e-15 137.26 
42495 4 0.5 134.662 
42498 4 1 135.528 
42501 4 0.5 136.394 
42502 4 1.5 136.394 
42506 4 1 137.26 
42507 4 2 137.26 
ITEM: TIMESTEP
120000
ITEM: NUMBER OF ATOMS
15
ITEM: BOX BOUNDS ff fm pp
-4.1000000000000000e+01 4.1000000000000000e+01
0.0000000000000000e+00 2.0000000000000000e+02
-2.5000000000000000e-01 2.5000000000000000e-01
ITEM: ATOMS id type x y 
42493 4 -2.41108e-15 130.921 
42494 4 -0.5 131.787 
42496 4 -1 132.653 
42497 4 -2.20988e-15 132.653 
42499 4 -1.5 133.519 
42500 4 -0.5 133.519 
42503 4 -2 134.385 
42504 4 -1 134.385 
42505 4 -2.00867e-15 134.385 
42495 4 0.5 131.787 
42498 4 1 132.653 
42501 4 0.5 133.519 
42502 4 1.5 133.519 
42506 4 1 134.385 
42507 4 2 134.385 
ITEM: TIMESTEP
130000
ITEM: NUMBER OF ATOMS
15
ITEM: BOX BOUNDS ff fm pp
-4.1000000000000000e+01 4.1000000000000000e+01
0.0000000000000000e+00 2.0000000000000000e+02
-2.5000000000000000e-01 2.5000000000000000e-01
ITEM: ATOMS id type x y 
42493 4 -2.78403e-15 127.796 
42494 4 -0.5 128.662 
42496 4 -1 129.528 
42497 4 -2.58608e-15 129.528 
42499 4 -1.5 130.394 
42500 4 -0.5 130.394 
42503 4 -2 131.26 
42504 4 -1 131.26 
42505 4 -2.38813e-15 131.26 
42507 4 2 131.26 
42495 4 0.5 128.662 
42498 4 1 129.528 
42501 4 0.5 130.394 
42502 4 1.5 130.394 
42506 4 1 131.26 
ITEM: TIMESTEP
140000
ITEM: NUMBER OF ATOMS
15
ITEM: BOX BOUNDS ff fm pp
-4.1000000000000000e+01 4.1000000000000000e+01
0.0000000000000000e+00 2.0000000000000000e+02
-2.5000000000000000e-01 2.5000000000000000e-01
ITEM: ATOMS id type x y 
42493 4 -3.21139e-15 124.421 
42494 4 -0.5 125.287 
42496 4 -1 126.153 
42497 4 -2.99885e-15 126.153 
42499 4 -1.5 127.019 
42500 4 -0.5 127.019 
42503 4 -2 127.885 
42504 4 -1 127.885 
42505 4 -2.78631e-15 127.885 
42495 4 0.5 125.287 
42498 4 1 126.153 
42501 4 0.5 127.019 
42502 4 1.5 127.019 
42506 4 1 127.885 
42507 4 2 127.885 
ITEM: TIMESTEP
150000
ITEM: NUMBER OF ATOMS
15
ITEM: BOX BOUNDS ff fm pp
-4.1000000000000000e+01 4.1000000000000000e+01
0.0000000000000000e+00 2.0000000000000000e+02
-2.5000000000000000e-01 2.5000000000000000e-01
ITEM: ATOMS id type x y 
42494 4 -0.499691 121.674 
42496 4 -0.999807 122.54 
42499 4 -1.49992 123.406 
42500 4 -0.499924 123.406 
42503 4 -2.00004 124.272 
42504 4 -1.00004 124.272 
42505 4 -3.99579e-05 124.272 
42493 4 0.000425298 120.808 
42495 4 0.500309 121.674 
42497 4 0.00019267 122.54 
42498 4 1.00019 122.54 
42501 4 0.500076 123.406 
42502 4 1.50008 123.406 
42506 4 0.99996 124.272 
42507 4 1.99996 124.272 
ITEM: TIMESTEP
160000
ITEM: NUMBER OF ATOMS
15
ITEM: BOX BOUNDS ff fm pp
-4.1000000000000000e+01 4.1000000000000000e+01
0.0000000000000000e+00 2.0000000000000000e+02
-2.5000000000000000e-01 2.5000000000000000e-01
ITEM: ATOMS id type x y 
42494 4 -0.49908 117.891 
42496 4 -0.999431 118.757 
42499 4 -1.49978 119.623 
42500 4 -0.499783 119.623 
42503 4 -2.00013 120.489 
42504 4 -1.00013 120.489 
42505 4 -0.000134674 120.49 
42493 4 0.00127185 117.026 
42495 4 0.50092 117.892 
42497 4 0.000568586 118.758 
42498 4 1.00057 118.758 
42501 4 0.500217 119.624 
42502 4 1.50022 119.624 
42506 4 0.999865 120.49 
42507 4 1.99987 120.49 
ITEM: TIMESTEP
170000
ITEM: NUMBER OF ATOMS
15
ITEM: BOX BOUNDS ff fm pp
-4.1000000000000000e+01 4.1000000000000000e+01
0.0000000000000000e+00 2.0000000000000000e+02
-2.5000000000000000e-01 2.5000000000000000e-01
ITEM: ATOMS id type x y 
42494 4 -0.498928 113.859 
42496 4 -0.999357 114.725 
42499 4 -1.49979 115.591 
42500 4 -0.499786 115.591 
42503 4 -2.00022 116.457 
42504 4 -1.00022 116.457 
42505 4 -0.000215261 116.458 
42493 4 0.00150088 112.994 
42495 4 0.501072 113.86 
42497 4 0.000642812 114.726 
42498 4 1.00064 114.726 
42501 4 0.500214 115.592 
42502 4 1.50021 115.592 
42506 4 0.999785 116.458 
42507 4 1.99978 116.459 
ITEM: TIMESTEP
180000
ITEM: NUMBER OF ATOMS
15
ITEM: BOX BOUNDS ff fm pp
-4.1000000000000000e+01 4.1000000000000000e+01
0.0000000000000000e+00 2.0000000000000000e+02
-2.5000000000000000e-01 2.5000000000000000e-01
ITEM: ATOMS id type x y 
42494 4 -0.498371 109.597 
42496 4 -0.999045 110.463 
42499 4 -1.49972 111.329 
42500 4 -0.499719 111.329 
42503 4 -2.00039 112.194 
42504 4 -1.00039 112.195 
42505 4 -0.000393855 112.196 
42493 4 0.002303 108.732 
42495 4 0.501629 109.598 
42497 4 0.000954574 110.464 
42498 4 1.00095 110.465 
42501 4 0.50028 111.33 
42502 4 1.50028 111.331 
42506 4 0.999606 112.197 
42507 4 1.99961 112.197 
ITEM: TIMESTEP
190000
ITEM: NUMBER OF ATOMS
15
ITEM: BOX BOUNDS ff fm pp
-4.1000000000000000e+01 4.1000000000000000e+01
0.0000000000000000e+00 2.0000000000000000e+02
-2.5000000000000000e-01 2.5000000000000000e-01
ITEM: ATOMS id type x y 
42494 4 -0.498836 105.127 
42496 4 -0.99921 105.993 
42499 4 -1.49958 106.859 
42500 4 -0.499584 106.859 
42503 4 -1.99996 107.725 
42504 4 -0.999957 107.725 
42493 4 0.00153815 104.262 
42495 4 0.501164 105.128 
42497 4 0.000790324 105.994 
42498 4 1.00079 105.994 
42501 4 0.500416 106.86 
42502 4 1.50042 106.86 
42506 4 1.00004 107.726 
42507 4 2.00004 107.726 
42505 4 4.2493e-05 107.726 
ITEM: TIMESTEP
200000
ITEM: NUMBER OF ATOMS
15
ITEM: BOX BOUNDS ff fm pp
-4.1000000000000000e+01 4.1000000000000000e+01
0.0000000000000000e+00 2.0000000000000000e+02
-2.5000000000000000e-01 2.5000000000000000e-01
ITEM: ATOMS id type x y 
42493 4 -0.00166629 99.59 
42494 4 -0.500912 100.456 
42496 4 -1.00016 101.323 
42497 4 -0.000158707 101.322 
42499 4 -1.4994 102.189 
42500 4 -0.499405 102.188 
42503 4 -1.99865 103.056 
42504 4 -0.998651 103.055 
42495 4 0.499087 100.456 
42498 4 0.999841 101.321 
42501 4 0.500595 102.188 
42502 4 1.50059 102.187 
42505 4 0.00134888 103.054 
42506 4 1.00135 103.053 
42507 4 2.00135 103.052 
ITEM: TIMESTEP
210000
ITEM: NUMBER OF ATOMS
15
ITEM: BOX BOUNDS ff fm pp
-4.1000000000000000e+01 4.1000000000000000e+01
0.0000000000000000e+00 2.0000000000000000e+02
-2.5000000000000000e-01 2.5000000000000000e-01
ITEM: ATOMS id type x y 
42493 4 -0.00665958 94.7082 
42494 4 -0.504575 95.5754 
42496 4 -1.00249 96.4426 
42497 4 -0.00249403 96.4402 
42499 4 -1.50041 97.3098 
42500 4 -0.50041 97.3074 
42503 4 -1.99832 98.177 
42504 4 -0.998326 98.1746 
42495 4 0.495422 95.573 
42498 4 0.997503 96.4378 
42501 4 0.499587 97.305 
42502 4 1.49958 97.3026 
42505 4 0.00167152 98.1722 
42506 4 1.00167 98.1698 
42507 4 2.00167 98.1674 
ITEM: TIMESTEP
220000
ITEM: NUMBER OF ATOMS
15
ITEM: BOX BOUNDS ff fm pp
-4.1000000000000000e+01 4.1000000000000000e+01
0.0000000000000000e+00 2.0000000000000000e+02
-2.5000000000000000e-01 2.5000000000000000e-01
ITEM: ATOMS id type x y 
42493 4 -0.0150094 89.6369 
42494 4 -0.51159 90.5049 
42496 4 -1.00817 91.3728 
42497 4 -0.00817792 91.3689 
42499 4 -1.50475 92.2408 
42500 4 -0.504758 92.2368 
42503 4 -2.00133 93.1087 
42504 4 -1.00134 93.1048 
42505 4 -0.00134639 93.1009 
42495 4 0.488402 90.5009 
42498 4 0.991814 91.3649 
42501 4 0.495234 92.2329 
42502 4 1.49523 92.2289 
42506 4 0.998646 93.0969 
42507 4 1.99864 93.093 
ITEM: TIMESTEP
230000
ITEM: NUMBER OF ATOMS
15
ITEM: BOX BOUNDS ff fm pp
-4.1000000000000000e+01 4.1000000000000000e+01
0.0000000000000000e+00 2.0000000000000000e+02
-2.5000000000000000e-01 2.5000000000000000e-01
ITEM: ATOMS id type x y 
42493 4 -0.0269476 84.3764 
42494 4 -0.521886 85.2453 
42496 4 -1.01682 86.1142 
42497 4 -0.0168407 86.1084 
42499 4 -1.51176 86.9831 
42500 4 -0.511779 86.9773 
42503 4 -2.0067 87.852 
42504 4 -1.00672 87.8462 
42505 4 -0.00673374 87.8404 
42495 4 0.478097 85.2395 
42498 4 0.983142 86.1026 
42501 4 0.488204 86.9715 
42502 4 1.48819 86.9656 
42506 4 0.993249 87.8345 
42507 4 1.99323 87.8287 
ITEM: TIMESTEP
240000
ITEM: NUMBER OF ATOMS
15
ITEM: BOX BOUNDS ff fm pp
-4.1000000000000000e+01 4.1000000000000000e+01
0.0000000000000000e+00 2.0000000000000000e+02
-2.5000000000000000e-01 2.5000000000000000e-01
ITEM: ATOMS id type x y 
42493 4 -0.0443704 78.9282 
42494 4 -0.536443 79.7988 
42496 4 -1.02852 80.6693 
42497 4 -0.028557 80.6602 
42499 4 -1.52059 81.5398 
42500 4 -0.520629 81.5307 
42503 4 -2.01266 82.4103 
42504 4 -1.0127 82.4012 
42505 4 -0.0127436 82.3921 
42495 4 0.463515 79.7896 
42498 4 0.971401 80.651 
42501 4 0.479329 81.5216 
42502 4 1.47929 81.5124 
42506 4 0.987215 82.383 
42507 4 1.98717 82.3738 
ITEM: TIMESTEP
250000
ITEM: NUMBER OF ATOMS
15
ITEM: BOX BOUNDS ff fm pp
-4.1000000000000000e+01 4.1000000000000000e+01
0.0000000000000000e+00 2.0000000000000000e+02
-2.5000000000000000e-01 2.5000000000000000e-01
ITEM: ATOMS id type x y 
42493 4 -0.0722555 73.3124 
42494 4 -0.558628 74.1861 
42496 4 -1.045 75.0599 
42497 4 -0.0451241 75.0442 
42499 4 -1.53137 75.9336 
42500 4 -0.531497 75.9179 
42503 4 -2.01775 76.8073 
42504 4 -1.01787 76.7917 
42505 4 -0.0179928 76.776 
42495 4 0.441249 74.1705 
42498 4 0.954753 75.0285 
42501 4 0.46838 75.9023 
42502 4 1.46826 75.8866 
42506 4 0.981884 76.7603 
42507 4 1.98176 76.7447 
ITEM: TIMESTEP
260000
ITEM: NUMBER OF ATOMS
15
ITEM: BOX BOUNDS ff fm pp
-4.1000000000000000e+01 4.1000000000000000e+01
0.0000000000000000e+00 2.0000000000000000e+02
-2.5000000000000000e-01 2.5000000000000000e-01
ITEM: ATOMS id type x y 
42493 4 -0.118502 67.5341 
42494 4 -0.592671 68.4146 
42496 4 -1.06684 69.295 
42497 4 -0.0672775 69.2654 
42499 4 -1.54101 70.1754 
42500 4 -0.541446 70.1458 
42503 4 -2.01518 71.0558 
42504 4 -1.01562 71.0262 
42505 4 -0.0160529 70.9966 
42495 4 0.406891 68.385 
42498 4 0.932285 69.2358 
42501 4 0.458116 70.1162 
42502 4 1.45768 70.0866 
42507 4 1.98307 70.9375 
42506 4 0.98351 70.9671 
ITEM: TIMESTEP
270000
ITEM: NUMBER OF ATOMS
15
ITEM: BOX BOUNDS ff fm pp
-4.1000000000000000e+01 4.1000000000000000e+01
0.0000000000000000e+00 2.0000000000000000e+02
-2.5000000000000000e-01 2.5000000000000000e-01
ITEM: ATOMS id type x y 
42493 4 -0.18116 61.6068 
42494 4 -0.639579 62.4956 
42496 4 -1.098 63.3843 
42497 4 -0.0991207 63.3369 
42499 4 -1.55642 64.273 
42500 4 -0.55754 64.2256 
42503 4 -2.01484 65.1617 
42504 4 -1.01596 65.1143 
42505 4 -0.0170814 65.067 
42495 4 0.359298 62.4482 
42498 4 0.899757 63.2895 
42501 4 0.441338 64.1782 
42502 4 1.44022 64.1309 
42506 4 0.981796 65.0196 
42507 4 1.98067 64.9722 
ITEM: TIMESTEP
280000
ITEM: NUMBER OF ATOMS
15
ITEM: BOX BOUNDS ff fm pp
-4.1000000000000000e+01 4.1000000000000000e+01
0.0000000000000000e+00 2.0000000000000000e+02
-2.5000000000000000e-01 2.5000000000000000e-01
ITEM: ATOMS id type x y 
42493 4 -0.261807 55.5474 
42494 4 -0.699751 56.4464 
42496 4 -1.13769 57.3453 
42497 4 -0.140163 57.2751 
42499 4 -1.57564 58.2443 
42500 4 -0.578107 58.1741 
42503 4 -2.01358 59.1433 
42504 4 -1.01605 59.0731 
42505 4 -0.0185196 59.0028 
42495 4 0.29778 56.3761 
42498 4 0.857367 57.2049 
42501 4 0.419424 58.1039 
42502 4 1.41695 58.0336 
42507 4 1.97654 58.8624 
42506 4 0.979011 58.9326 
ITEM: TIMESTEP
290000
ITEM: NUMBER OF ATOMS
15
ITEM: BOX BOUNDS ff fm pp
-4.1000000000000000e+01 4.1000000000000000e+01
0.0000000000000000e+00 2.0000000000000000e+02
-2.5000000000000000e-01 2.5000000000000000e-01
ITEM: ATOMS id type x y 
42493 4 -0.356127 49.3618 
42494 4 -0.774855 50.2699 
42496 4 -1.19358 51.178 
42497 4 -0.197771 51.0866 
42499 4 -1.61231 52.0861 
42500 4 -0.616499 51.9947 
42505 4 -0.039416 52.8113 
42503 4 -2.03104 52.9942 
42504 4 -1.03523 52.9027 
42495 4 0.220957 50.1785 
42498 4 0.79804 50.9951 
42501 4 0.379312 51.9032 
42502 4 1.37512 51.8118 
42506 4 0.956396 52.7199 
42507 4 1.95221 52.6285 
ITEM: TIMESTEP
300000
ITEM: NUMBER OF ATOMS
15
ITEM: BOX BOUNDS ff fm pp
-4.1000000000000000e+01 4.1000000000000000e+01
0.0000000000000000e+00 2.0000000000000000e+02
-2.5000000000000000e-01 2.5000000000000000e-01
ITEM: ATOMS id type x y 
42493 4 -0.462572 43.0589 
42494 4 -0.86295 43.9752 
42496 4 -1.26333 44.8916 
42497 4 -0.269557 44.7801 
42499 4 -1.66371 45.8079 
42500 4 -0.669936 45.6965 
42503 4 -2.06408 46.7242 
42504 4 -1.07031 46.6128 
42505 4 -0.0765427 46.5013 
42495 4 0.130821 43.8638 
42498 4 0.724214 44.6687 
42501 4 0.323835 45.585 
42502 4 1.31761 45.4736 
42507 4 1.911 46.2785 
42506 4 0.917228 46.3899 
ITEM: TIMESTEP
310000
ITEM: NUMBER OF ATOMS
15
ITEM: BOX BOUNDS ff fm pp
-4.1000000000000000e+01 4.1000000000000000e+01
0.0000000000000000e+00 2.0000000000000000e+02
-2.5000000000000000e-01 2.5000000000000000e-01
ITEM: ATOMS id type x y 
42493 4 -0.573267 36.6483 
42494 4 -0.964489 37.5686 
42497 4 -0.363102 38.3675 
42496 4 -1.35571 38.4888 
42499 4 -1.74694 39.4091 
42500 4 -0.754325 39.2878 
42504 4 -1.14555 40.208 
42505 4 -0.152937 40.0867 
42503 4 -2.13816 40.3294 
42495 4 0.0281213 37.4472 
42498 4 0.629509 38.2461 
42501 4 0.238286 39.1664 
42502 4 1.2309 39.0451 
42506 4 0.839674 39.9653 
42507 4 1.83228 39.844 
ITEM: TIMESTEP
320000
ITEM: NUMBER OF ATOMS
15
ITEM: BOX BOUNDS ff fm pp
-4.1000000000000000e+01 4.1000000000000000e+01
0.0000000000000000e+00 2.0000000000000000e+02
-2.5000000000000000e-01 2.5000000000000000e-01
ITEM: ATOMS id type x y 
42493 4 -0.69506 30.1189 
42494 4 -1.07697 31.0431 
42495 4 -0.0856389 30.9117 
42496 4 -1.45889 31.9672 
42497 4 -0.467553 31.8359 
42499 4 -1.8408 32.8914 
42500 4 -0.849467 32.7601 
42505 4 -0.240046 33.5529 
42503 4 -2.22272 33.8156 
42504 4 -1.23138 33.6842 
42498 4 0.523782 31.7045 
42501 4 0.141868 32.6287 
42502 4 1.1332 32.4973 
42506 4 0.75129 33.4215 
42507 4 1.74263 33.2902 
ITEM: TIMESTEP
330000
ITEM: NUMBER OF ATOMS
15
ITEM: BOX BOUNDS ff fm pp
-4.1000000000000000e+01 4.1000000000000000e+01
0.0000000000000000e+00 2.0000000000000000e+02
-2.5000000000000000e-01 2.5000000000000000e-01
ITEM: ATOMS id type x y 
42493 4 -0.813984 23.4789 
42494 4 -1.18593 24.4072 
42495 4 -0.196067 24.2651 
42496 4 -1.55788 25.3354 
42497 4 -0.568014 25.1934 
42499 4 -1.92983 26.2636 
42500 4 -0.939962 26.1216 
42505 4 -0.322044 26.9078 
42503 4 -2.30177 27.1918 
42504 4 -1.31191 27.0498 
42498 4 0.42185 25.0514 
42501 4 0.0499028 25.9796 
42502 4 1.03977 25.8376 
42506 4 0.66782 26.7658 
42507 4 1.65768 26.6238 
ITEM: TIMESTEP
340000
ITEM: NUMBER OF ATOMS
15
ITEM: BOX BOUNDS ff fm pp
-4.1000000000000000e+01 4.1000000000000000e+01
0.0000000000000000e+00 2.0000000000000000e+02
-2.5000000000000000e-01 2.5000000000000000e-01
ITEM: ATOMS id type x y 
42493 4 -1.08346 16.7612 
42494 4 -1.39439 17.7116 
42495 4 -0.415822 17.5057 
42497 4 -0.726752 18.4561 
42496 4 -1.70531 18.662 
42499 4 -2.01624 19.6124 
42500 4 -1.03768 19.4065 
42501 4 -0.0591186 19.2005 
42504 4 -1.34861 20.3569 
42505 4 -0.370048 20.1509 
42503 4 -2.32717 20.5628 
42498 4 0.251811 18.2501 
42502 4 0.919444 18.9946 
42507 4 1.58708 19.739 
42506 4 0.608515 19.945 
ITEM: TIMESTEP
350000
ITEM: NUMBER OF ATOMS
15
ITEM: BOX BOUNDS ff fm pp
-4.1000000000000000e+01 4.1000000000000000e+01
0.0000000000000000e+00 2.0000000000000000e+02
-2.5000000000000000e-01 2.5000000000000000e-01
ITEM: ATOMS id type x y 
42493 4 -1.33993 9.95793 
42495 4 -0.614112 10.6458 
42494 4 -1.57274 10.9304 
42496 4 -1.80556 11.9029 
42497 4 -0.846925 11.6183 
42501 4 -0.121105 12.3061 
42499 4 -2.03837 12.8754 
42500 4 -1.07974 12.5908 
42504 4 -1.31255 13.5633 
42505 4 -0.353918 13.2786 
42503 4 -2.27118 13.8479 
42498 4 0.111708 11.3336 
42502 4 0.837528 12.0215 
42506 4 0.604715 12.994 
42507 4 1.56335 12.7093 
ITEM: TIMESTEP
360000
ITEM: NUMBER OF ATOMS
15
ITEM: BOX BOUNDS ff fm pp
-4.1000000000000000e+01 4.1000000000000000e+01
0.0000000000000000e+00 2.0000000000000000e+02
-2.5000000000000000e-01 2.5000000000000000e-01
ITEM: ATOMS id type x y 
42493 4 -1.59546 3.15295 
42494 4 -1.82464 4.12631 
42495 4 -0.867078 3.83809 
42498 4 -0.1387 4.52323 
42496 4 -2.05383 5.09967 
42497 4 -1.09627 4.81145 
42500 4 -1.32545 5.78481 
42501 4 -0.367888 5.49659 
42499 4 -2.28302 6.07303 
42505 4 -0.597076 6.46995 
42503 4 -2.51221 7.04638 
42504 4 -1.55464 6.75817 
42502 4 0.589677 5.20838 
42507 4 1.31805 5.89352 
42506 4 0.360489 6.18174 
ITEM: TIMESTEP
370000
ITEM: NUMBER OF ATOMS
15
ITEM: BOX BOUNDS ff fm pp
-4.1000000000000000e+01 4.1000000000000000e+01
0.0000000000000000e+00 2.0000000000000000e+02
-2.5000000000000000e-01 2.5000000000000000e-01
ITEM: ATOMS id type x y 
42493 4 -1.89619 0.345195 
42494 4 -2.45019 1.17769 
42495 4 -1.4522 1.2412 
42496 4 -3.00418 2.01018 
42497 4 -2.0062 2.0737 
42498 4 -1.00822 2.13721 
42499 4 -3.55817 2.84268 
42500 4 -2.56019 2.90619 
42501 4 -1.56221 2.96971 
42502 4 -0.564232 3.03322 
42503 4 -4.11217 3.67517 
42504 4 -3.11419 3.73869 
42505 4 -2.11621 3.8022 
42506 4 -1.11823 3.86572 
42507 4 -0.120245 3.92923 
ITEM: TIMESTEP
380000
ITEM: NUMBER OF ATOMS
15
ITEM: BOX BOUNDS ff fm pp
-4.1000000000000000e+01 4.1000000000000000e+01
0.0000000000000000e+00 2.0000000000000000e+02
-2.5000000000000000e-01 2.5000000000000000e-01
ITEM: ATOMS id type x y 
42493 4 -2.01289 0.63542 
42494 4 -2.73106 1.33125 
42495 4 -1.76935 1.60529 
42496 4 -3.44924 2.02707 
42497 4 -2.48753 2.30112 
42499 4 -4.16742 2.7229 
42500 4 -3.2057 2.99694 
42498 4 -1.52581 2.57516 
42503 4 -4.8856 3.41873 
42501 4 -2.24399 3.27098 
42502 4 -1.28227 3.54502 
42504 4 -3.92388 3.69277 
42505 4 -2.96216 3.96681 
42506 4 -2.00045 4.24085 
42507 4 -1.03873 4.51489 
ITEM: TIMESTEP
390000
ITEM: NUMBER OF ATOMS
15
ITEM: BOX BOUNDS ff fm pp
-4.1000000000000000e+01 4.1000000000000000e+01
0.0000000000000000e+00 2.0000000000000000e+02
-2.5000000000000000e-01 2.5000000000000000e-01
ITEM: ATOMS id type x y 
42493 4 -2.16657 0.761425 
42494 4 -3.01356 1.29299 
42495 4 -2.12969 1.76072 
42499 4 -4.70754 2.35613 
42496 4 -3.86055 1.82456 
42497 4 -2.97668 2.29229 
42503 4 -5.55453 2.8877 
42500 4 -3.82367 2.82386 
42498 4 -2.09281 2.76002 
42504 4 -4.67066 3.35543 
42501 4 -2.9398 3.29159 
42505 4 -3.78679 3.82316 
42502 4 -2.05593 3.75932 
42506 4 -2.90292 4.29089 
42507 4 -2.01905 4.75862 
ITEM: TIMESTEP
400000
ITEM: NUMBER OF ATOMS
15
ITEM: BOX BOUNDS ff fm pp
-4.1000000000000000e+01 4.1000000000000000e+01
0.0000000000000000e+00 2.0000000000000000e+02
-2.5000000000000000e-01 2.5000000000000000e-01
ITEM: ATOMS id type x y 
42494 4 -3.30057 1.08061 
42493 4 -2.36595 0.725008 
42496 4 -4.23518 1.4362 
42495 4 -2.52528 1.71221 
42503 4 -6.10441 2.1474 
42499 4 -5.1698 1.7918 
42497 4 -3.45989 2.06781 
42504 4 -5.32912 2.779 
42500 4 -4.39451 2.42341 
42498 4 -2.6846 2.69942 
42505 4 -4.55384 3.41061 
42501 4 -3.61922 3.05501 
42506 4 -3.77855 4.04222 
42502 4 -2.84393 3.68662 
42507 4 -3.00326 4.67382 
ITEM: TIMESTEP
410000
ITEM: NUMBER OF ATOMS
15
ITEM: BOX BOUNDS ff fm pp
-4.1000000000000000e+01 4.1000000000000000e+01
0.0000000000000000e+00 2.0000000000000000e+02
-2.5000000000000000e-01 2.5000000000000000e-01
ITEM: ATOMS id type x y 
42496 4 -4.49977 1.13579 
42494 4 -3.51355 0.970479 
42493 4 -2.52733 0.805168 
42503 4 -6.47221 1.46642 
42499 4 -5.48599 1.3011 
42495 4 -2.87726 1.74192 
42504 4 -5.83591 2.23786 
42500 4 -4.84969 2.07255 
42497 4 -3.86348 1.90724 
42501 4 -4.2134 2.84399 
42498 4 -3.22718 2.67868 
42505 4 -5.19962 3.0093 
42502 4 -3.5771 3.61543 
42506 4 -4.56332 3.78075 
42507 4 -3.92702 4.55219 
ITEM: TIMESTEP
420000
ITEM: NUMBER OF ATOMS
15
ITEM: BOX BOUNDS ff fm pp
-4.1000000000000000e+01 4.1000000000000000e+01
0.0000000000000000e+00 2.0000000000000000e+02
-2.5000000000000000e-01 2.5000000000000000e-01
ITEM: ATOMS id type x y 
42503 4 -6.46987 1.09339 
42499 4 -5.47849 1.22423 
42496 4 -4.48711 1.35507 
42494 4 -3.49573 1.48591 
42493 4 -2.50435 1.61675 
42504 4 -6.08747 2.01738 
42500 4 -5.09609 2.14822 
42497 4 -4.10471 2.27907 
42495 4 -3.11333 2.40991 
42505 4 -5.70507 2.94138 
42501 4 -4.71369 3.07222 
42498 4 -3.72231 3.20306 
42506 4 -5.32267 3.86538 
42502 4 -4.33129 3.99622 
42507 4 -4.94027 4.78938 
ITEM: TIMESTEP
430000
ITEM: NUMBER OF ATOMS
15
ITEM: BOX BOUNDS ff fm pp
-4.1000000000000000e+01 4.1000000000000000e+01
0.0000000000000000e+00 2.0000000000000000e+02
-2.5000000000000000e-01 2.5000000000000000e-01
ITEM: ATOMS id type x y 
42503 4 -6.59742 1.076 
42499 4 -5.62988 1.32864 
42496 4 -4.66234 1.58127 
42504 4 -6.33242 2.04025 
42500 4 -5.36488 2.29289 
42494 4 -3.6948 1.83391 
42493 4 -2.72726 2.08655 
42505 4 -6.06742 3.0045 
42497 4 -4.39734 2.54552 
42495 4 -3.4298 2.79816 
42501 4 -5.09988 3.25714 
42498 4 -4.13234 3.50977 
42506 4 -5.80242 3.96875 
42502 4 -4.83488 4.22139 
42507 4 -5.53742 4.933 
ITEM: TIMESTEP
440000
ITEM: NUMBER OF ATOMS
15
ITEM: BOX BOUNDS ff fm pp
-4.1000000000000000e+01 4.1000000000000000e+01
0.0000000000000000e+00 2.0000000000000000e+02
-2.5000000000000000e-01 2.5000000000000000e-01
ITEM: ATOMS id type x y 
42503 4 -6.94928 1.21699 
42499 4 -5.97681 1.44992 
42496 4 -5.00434 1.68286 
42504 4 -6.66476 2.17565 
42494 4 -4.03187 1.91579 
42493 4 -3.0594 2.14873 
42500 4 -5.69229 2.40859 
42497 4 -4.71982 2.64153 
42495 4 -3.74735 2.87446 
42505 4 -6.38023 3.13432 
42501 4 -5.40776 3.36726 
42506 4 -6.09571 4.09299 
42498 4 -4.43529 3.6002 
42502 4 -5.12324 4.32593 
42507 4 -5.81118 5.05166 
ITEM: TIMESTEP
450000
ITEM: NUMBER OF ATOMS
15
ITEM: BOX BOUNDS ff fm pp
-4.1000000000000000e+01 4.1000000000000000e+01
0.0000000000000000e+00 2.0000000000000000e+02
-2.5000000000000000e-01 2.5000000000000000e-01
ITEM: ATOMS id type x y 
42503 4 -7.26728 1.06613 
42499 4 -6.29169 1.28564 
42496 4 -5.3161 1.50514 
42494 4 -4.34052 1.72465 
42504 4 -6.96957 2.02079 
42500 4 -5.99398 2.24029 
42493 4 -3.36493 1.94415 
42505 4 -6.67185 2.97544 
42497 4 -5.01839 2.4598 
42495 4 -4.0428 2.6793 
42501 4 -5.69626 3.19495 
42498 4 -4.72067 3.41445 
42506 4 -6.37413 3.9301 
42502 4 -5.39855 4.1496 
42507 4 -6.07642 4.88475 
ITEM: TIMESTEP
460000
ITEM: NUMBER OF ATOMS
15
ITEM: BOX BOUNDS ff fm pp
-4.1000000000000000e+01 4.1000000000000000e+01
0.0000000000000000e+00 2.0000000000000000e+02
-2.5000000000000000e-01 2.5000000000000000e-01
ITEM: ATOMS id type x y 
42503 4 -7.48003 1.02949 
42499 4 -6.49716 1.21366 
42496 4 -5.51429 1.39784 
42494 4 -4.53142 1.58202 
42493 4 -3.54855 1.7662 
42504 4 -7.14808 1.97278 
42500 4 -6.16521 2.15696 
42497 4 -5.18234 2.34114 
42505 4 -6.81613 2.91608 
42495 4 -4.19947 2.52531 
42501 4 -5.83325 3.10026 
42498 4 -4.85038 3.28443 
42506 4 -6.48417 3.85937 
42502 4 -5.5013 4.04355 
42507 4 -6.15222 4.80267 
ITEM: TIMESTEP
470000
ITEM: NUMBER OF ATOMS
15
ITEM: BOX BOUNDS ff fm pp
-4.1000000000000000e+01 4.1000000000000000e+01
0.0000000000000000e+00 2.0000000000000000e+02
-2.5000000000000000e-01 2.5000000000000000e-01
ITEM: ATOMS id type x y 
42503 4 -7.51736 1.28908 
42499 4 -6.52604 1.42038 
42496 4 -5.53472 1.55168 
42494 4 -4.5434 1.68298 
42504 4 -7.13539 2.21325 
42500 4 -6.14406 2.34455 
42493 4 -3.55207 1.81428 
42497 4 -5.15274 2.47585 
42495 4 -4.16142 2.60715 
42505 4 -6.75341 3.13743 
42501 4 -5.76209 3.26873 
42498 4 -4.77077 3.40003 
42506 4 -6.37144 4.0616 
42502 4 -5.38012 4.1929 
42507 4 -5.98947 4.98578 
ITEM: TIMESTEP
480000
ITEM: NUMBER OF ATOMS
15
ITEM: BOX BOUNDS ff fm pp
-4.1000000000000000e+01 4.1000000000000000e+01
0.0000000000000000e+00 2.0000000000000000e+02
-2.5000000000000000e-01 2.5000000000000000e-01
ITEM: ATOMS id type x y 
42503 4 -7.4357 1.10742 
42499 4 -6.44784 1.26268 
42496 4 -5.45999 1.41793 
42494 4 -4.47214 1.57318 
42493 4 -3.48429 1.72844 
42504 4 -7.0762 2.04057 
42500 4 -6.08835 2.19583 
42497 4 -5.1005 2.35108 
42505 4 -6.71671 2.97372 
42495 4 -4.11265 2.50633 
42501 4 -5.72886 3.12897 
42498 4 -4.74101 3.28423 
42506 4 -6.35722 3.90687 
42502 4 -5.36937 4.06212 
42507 4 -5.99773 4.84002 
ITEM: TIMESTEP
490000
ITEM: NUMBER OF ATOMS
15
ITEM: BOX BOUNDS ff fm pp