ITEM: TIMESTEP
0
ITEM: NUMBER OF ATOMS
15
ITEM: BOX BOUNDS ff fm pp
-4.1000000000000000e+01 4.1000000000000000e+01
0.0000000000000000e+00 2.0000000000000000e+02
-2.5000000000000000e-01 2.5000000000000000e-01
ITEM: ATOMS id type x y 
42509 5 -0.5 154.249 
42511 5 -1 155.115 
42514 5 -1.5 155.981 
42515 5 -0.5 155.981 
42518 5 -2 156.847 
42519 5 -1 156.847 
42508 5 0 153.383 
42510 5 0.5 154.249 
42512 5 0 155.115 
42513 5 1 155.115 
42516 5 0.5 155.981 
42517 5 1.5 155.981 
42520 5 0 156.847 
42521 5 1 156.847 
42522 5 2 156.847 
ITEM: TIMESTEP
10000
ITEM: NUMBER OF ATOMS
15
ITEM: BOX BOUNDS ff fm pp
-4.1000000000000000e+01 4.1000000000000000e+01
0.0000000000000000e+00 2.0000000000000000e+02
-2.5000000000000000e-01 2.5000000000000000e-01
ITEM: ATOMS id type x y 
42508 5 -9.25132e-18 153.26 
42509 5 -0.5 154.126 
42511 5 -1 154.992 
42512 5 -1.35402e-17 154.992 
42514 5 -1.5 155.858 
42515 5 -0.5 155.858 
42518 5 -2 156.724 
42519 5 -1 156.724 
42520 5 -1.7829e-17 156.724 
42510 5 0.5 154.126 
42513 5 1 154.992 
42516 5 0.5 155.858 
42517 5 1.5 155.858 
42521 5 1 156.724 
42522 5 2 156.724 
ITEM: TIMESTEP
20000
ITEM: NUMBER OF ATOMS
15
ITEM: BOX BOUNDS ff fm pp
-4.1000000000000000e+01 4.1000000000000000e+01
0.0000000000000000e+00 2.0000000000000000e+02
-2.5000000000000000e-01 2.5000000000000000e-01
ITEM: ATOMS id type x y 
42508 5 -3.34914e-17 152.89 
42509 5 -0.5 153.756 
42511 5 -1 154.622 
42512 5 -5.37919e-17 154.622 
42514 5 -1.5 155.488 
42515 5 -0.5 155.488 
42518 5 -2 156.354 
42519 5 -1 156.354 
42520 5 -7.40924e-17 156.354 
42510 5 0.5 153.756 
42513 5 1 154.622 
42516 5 0.5 155.488 
42517 5 1.5 155.488 
42521 5 1 156.354 
42522 5 2 156.354 
ITEM: TIMESTEP
30000
ITEM: NUMBER OF ATOMS
15
ITEM: BOX BOUNDS ff fm pp
-4.1000000000000000e+01 4.1000000000000000e+01
0.0000000000000000e+00 2.0000000000000000e+02
-2.5000000000000000e-01 2.5000000000000000e-01
ITEM: ATOMS id type x y 
42508 5 -5.63031e-17 152.27 
42509 5 -0.5 153.136 
42511 5 -1 154.002 
42512 5 -1.16664e-16 154.002 
42514 5 -1.5 154.868 
42515 5 -0.5 154.868 
42518 5 -2 155.734 
42519 5 -1 155.734 
42520 5 -1.77025e-16 155.734 
42510 5 0.5 153.136 
42513 5 1 154.002 
42516 5 0.5 154.868 
42517 5 1.5 154.868 
42521 5 1 155.734 
42522 5 2 155.734 
ITEM: TIMESTEP
40000
ITEM: NUMBER OF ATOMS
15
ITEM: BOX BOUNDS ff fm pp
-4.1000000000000000e+01 4.1000000000000000e+01
0.0000000000000000e+00 2.0000000000000000e+02
-2.5000000000000000e-01 2.5000000000000000e-01
ITEM: ATOMS id type x y 
42508 5 -1.10956e-16 151.399 
42509 5 -0.5 152.265 
42511 5 -1 153.131 
42512 5 -2.10458e-16 153.131 
42514 5 -1.5 153.997 
42515 5 -0.5 153.997 
42518 5 -2 154.863 
42519 5 -1 154.863 
42520 5 -3.09961e-16 154.863 
42510 5 0.5 152.265 
42513 5 1 153.131 
42516 5 0.5 153.997 
42517 5 1.5 153.997 
42521 5 1 154.863 
42522 5 2 154.863 
ITEM: TIMESTEP
50000
ITEM: NUMBER OF ATOMS
15
ITEM: BOX BOUNDS ff fm pp
-4.1000000000000000e+01 4.1000000000000000e+01
0.0000000000000000e+00 2.0000000000000000e+02
-2.5000000000000000e-01 2.5000000000000000e-01
ITEM: ATOMS id type x y 
42508 5 -1.94718e-16 150.279 
42509 5 -0.5 151.145 
42511 5 -1 152.011 
42512 5 -3.3449e-16 152.011 
42514 5 -1.5 152.877 
42515 5 -0.5 152.877 
42518 5 -2 153.743 
42519 5 -1 153.743 
42520 5 -4.74263e-16 153.743 
42510 5 0.5 151.145 
42513 5 1 152.011 
42516 5 0.5 152.877 
42517 5 1.5 152.877 
42521 5 1 153.743 
42522 5 2 153.743 
ITEM: TIMESTEP
60000
ITEM: NUMBER OF ATOMS
15
ITEM: BOX BOUNDS ff fm pp
-4.1000000000000000e+01 4.1000000000000000e+01
0.0000000000000000e+00 2.0000000000000000e+02
-2.5000000000000000e-01 2.5000000000000000e-01
ITEM: ATOMS id type x y 
42508 5 -3.07509e-16 148.909 
42509 5 -0.5 149.775 
42511 5 -1 150.641 
42512 5 -4.88741e-16 150.641 
42514 5 -1.5 151.507 
42515 5 -0.5 151.507 
42518 5 -2 152.373 
42519 5 -1 152.373 
42520 5 -6.69972e-16 152.373 
42510 5 0.5 149.775 
42513 5 1 150.641 
42516 5 0.5 151.507 
42517 5 1.5 151.507 
42521 5 1 152.373 
42522 5 2 152.373 
ITEM: TIMESTEP
70000
ITEM: NUMBER OF ATOMS
15
ITEM: BOX BOUNDS ff fm pp
-4.1000000000000000e+01 4.1000000000000000e+01
0.0000000000000000e+00 2.0000000000000000e+02
-2.5000000000000000e-01 2.5000000000000000e-01
ITEM: ATOMS id type x y 
42508 5 -4.51098e-16 147.288 
42509 5 -0.5 148.154 
42511 5 -1 149.02 
42512 5 -6.73651e-16 149.02 
42514 5 -1.5 149.886 
42515 5 -0.5 149.886 
42518 5 -2 150.752 
42519 5 -1 150.752 
42520 5 -8.96204e-16 150.752 
42510 5 0.5 148.154 
42513 5 1 149.02 
42516 5 0.5 149.886 
42517 5 1.5 149.886 
42521 5 1 150.752 
42522 5 2 150.752 
ITEM: TIMESTEP
80000
ITEM: NUMBER OF ATOMS
15
ITEM: BOX BOUNDS ff fm pp
-4.1000000000000000e+01 4.1000000000000000e+01
0.0000000000000000e+00 2.0000000000000000e+02
-2.5000000000000000e-01 2.5000000000000000e-01
ITEM: ATOMS id type x y 
42508 5 -6.34076e-16 145.418 
42509 5 -0.5 146.284 
42511 5 -1 147.15 
42512 5 -8.91369e-16 147.15 
42514 5 -1.5 148.016 
42515 5 -0.5 148.016 
42518 5 -2 148.882 
42519 5 -1 148.882 
42520 5 -1.14866e-15 148.882 
42510 5 0.5 146.284 
42513 5 1 147.15 
42516 5 0.5 148.016 
42517 5 1.5 148.016 
42521 5 1 148.882 
42522 5 2 148.882 
ITEM: TIMESTEP
90000
ITEM: NUMBER OF ATOMS
15
ITEM: BOX BOUNDS ff fm pp
-4.1000000000000000e+01 4.1000000000000000e+01
0.0000000000000000e+00 2.0000000000000000e+02
-2.5000000000000000e-01 2.5000000000000000e-01
ITEM: ATOMS id type x y 
42508 5 -8.68037e-16 143.298 
42509 5 -0.5 144.164 
42511 5 -1 145.03 
42512 5 -1.14479e-15 145.03 
42514 5 -1.5 145.896 
42515 5 -0.5 145.896 
42518 5 -2 146.762 
42519 5 -1 146.762 
42520 5 -1.42155e-15 146.762 
42510 5 0.5 144.164 
42513 5 1 145.03 
42516 5 0.5 145.896 
42517 5 1.5 145.896 
42521 5 1 146.762 
42522 5 2 146.762 
ITEM: TIMESTEP
100000
ITEM: NUMBER OF ATOMS
15
ITEM: BOX BOUNDS ff fm pp
-4.1000000000000000e+01 4.1000000000000000e+01
0.0000000000000000e+00 2.0000000000000000e+02
-2.5000000000000000e-01 2.5000000000000000e-01
ITEM: ATOMS id type x y 
42508 5 -1.12525e-15 140.928 
42509 5 -0.5 141.794 
42511 5 -1 142.66 
42512 5 -1.42699e-15 142.66 
42514 5 -1.5 143.526 
42515 5 -0.5 143.526 
42518 5 -2 144.392 
42519 5 -1 144.392 
42520 5 -1.72873e-15 144.392 
42510 5 0.5 141.794 
42513 5 1 142.66 
42516 5 0.5 143.526 
42517 5 1.5 143.526 
42521 5 1 144.392 
42522 5 2 144.392 
ITEM: TIMESTEP
110000
ITEM: NUMBER OF ATOMS
15
ITEM: BOX BOUNDS ff fm pp
-4.1000000000000000e+01 4.1000000000000000e+01
0.0000000000000000e+00 2.0000000000000000e+02
-2.5000000000000000e-01 2.5000000000000000e-01
ITEM: ATOMS id type x y 
42508 5 -1.3886e-15 138.307 
42509 5 -0.5 139.173 
42511 5 -1 140.039 
42512 5 -1.73369e-15 140.039 
42514 5 -1.5 140.905 
42515 5 -0.5 140.905 
42518 5 -2 141.771 
42519 5 -1 141.771 
42520 5 -2.07877e-15 141.771 
42510 5 0.5 139.173 
42513 5 1 140.039 
42516 5 0.5 140.905 
42517 5 1.5 140.905 
42521 5 1 141.771 
42522 5 2 141.771 
ITEM: TIMESTEP
120000
ITEM: NUMBER OF ATOMS
15
ITEM: BOX BOUNDS ff fm pp
-4.1000000000000000e+01 4.1000000000000000e+01
0.0000000000000000e+00 2.0000000000000000e+02
-2.5000000000000000e-01 2.5000000000000000e-01
ITEM: ATOMS id type x y 
42508 5 -1.68576e-15 135.437 
42509 5 -0.5 136.303 
42511 5 -1 137.169 
42512 5 -2.07179e-15 137.169 
42514 5 -1.5 138.035 
42515 5 -0.5 138.035 
42518 5 -2 138.901 
42519 5 -1 138.901 
42520 5 -2.45783e-15 138.901 
42510 5 0.5 136.303 
42513 5 1 137.169 
42516 5 0.5 138.035 
42517 5 1.5 138.035 
42521 5 1 138.901 
42522 5 2 138.901 
ITEM: TIMESTEP
130000
ITEM: NUMBER OF ATOMS
15
ITEM: BOX BOUNDS ff fm pp
-4.1000000000000000e+01 4.1000000000000000e+01
0.0000000000000000e+00 2.0000000000000000e+02
-2.5000000000000000e-01 2.5000000000000000e-01
ITEM: ATOMS id type x y 
42508 5 -1.99843e-15 132.317 
42509 5 -0.5 133.183 
42511 5 -1 134.049 
42512 5 -2.43674e-15 134.049 
42514 5 -1.5 134.915 
42515 5 -0.5 134.915 
42518 5 -2 135.781 
42519 5 -1 135.781 
42520 5 -2.87505e-15 135.781 
42510 5 0.5 133.183 
42513 5 1 134.049 
42516 5 0.5 134.915 
42517 5 1.5 134.915 
42521 5 1 135.781 
42522 5 2 135.781 
ITEM: TIMESTEP
140000
ITEM: NUMBER OF ATOMS
15
ITEM: BOX BOUNDS ff fm pp
-4.1000000000000000e+01 4.1000000000000000e+01
0.0000000000000000e+00 2.0000000000000000e+02
-2.5000000000000000e-01 2.5000000000000000e-01
ITEM: ATOMS id type x y 
42520 5 -3.3243e-15 132.41 
42508 5 -2.33889e-15 128.946 
42509 5 -0.5 129.812 
42511 5 -1 130.678 
42512 5 -2.83159e-15 130.678 
42514 5 -1.5 131.544 
42515 5 -0.5 131.544 
42518 5 -2 132.41 
42519 5 -1 132.41 
42522 5 2 132.41 
42510 5 0.5 129.812 
42513 5 1 130.678 
42516 5 0.5 131.544 
42517 5 1.5 131.544 
42521 5 1 132.41 
ITEM: TIMESTEP
150000
ITEM: NUMBER OF ATOMS
15
ITEM: BOX BOUNDS ff fm pp
-4.1000000000000000e+01 4.1000000000000000e+01
0.0000000000000000e+00 2.0000000000000000e+02
-2.5000000000000000e-01 2.5000000000000000e-01
ITEM: ATOMS id type x y 
42508 5 -2.71322e-15 125.326 
42509 5 -0.5 126.192 
42511 5 -1 127.058 
42512 5 -3.25788e-15 127.058 
42514 5 -1.5 127.924 
42515 5 -0.5 127.924 
42518 5 -2 128.79 
42519 5 -1 128.79 
42520 5 -3.80254e-15 128.79 
42510 5 0.5 126.192 
42513 5 1 127.058 
42516 5 0.5 127.924 
42517 5 1.5 127.924 
42521 5 1 128.79 
42522 5 2 128.79 
ITEM: TIMESTEP
160000
ITEM: NUMBER OF ATOMS
15
ITEM: BOX BOUNDS ff fm pp
-4.1000000000000000e+01 4.1000000000000000e+01
0.0000000000000000e+00 2.0000000000000000e+02
-2.5000000000000000e-01 2.5000000000000000e-01
ITEM: ATOMS id type x y 
42508 5 -5.05667e-06 121.476 
42509 5 -0.500004 122.342 
42511 5 -1 123.208 
42512 5 -1.99263e-06 123.208 
42514 5 -1.5 124.074 
42515 5 -0.5 124.074 
42518 5 -2 124.94 
42519 5 -0.999999 124.94 
42510 5 0.499996 122.342 
42513 5 0.999998 123.208 
42516 5 0.5 124.074 
42517 5 1.5 124.074 
42520 5 1.07141e-06 124.94 
42521 5 1 124.94 
42522 5 2 124.94 
ITEM: TIMESTEP
170000
ITEM: NUMBER OF ATOMS
15
ITEM: BOX BOUNDS ff fm pp
-4.1000000000000000e+01 4.1000000000000000e+01
0.0000000000000000e+00 2.0000000000000000e+02
-2.5000000000000000e-01 2.5000000000000000e-01
ITEM: ATOMS id type x y 
42508 5 -6.55942e-05 117.447 
42509 5 -0.500047 118.313 
42511 5 -1.00003 119.179 
42512 5 -2.86552e-05 119.179 
42514 5 -1.50001 120.045 
42515 5 -0.50001 120.045 
42518 5 -1.99999 120.911 
42519 5 -0.999992 120.911 
42510 5 0.499953 118.313 
42513 5 0.999971 119.179 
42516 5 0.49999 120.045 
42517 5 1.49999 120.045 
42520 5 8.28373e-06 120.911 
42521 5 1.00001 120.911 
42522 5 2.00001 120.911 
ITEM: TIMESTEP
180000
ITEM: NUMBER OF ATOMS
15
ITEM: BOX BOUNDS ff fm pp
-4.1000000000000000e+01 4.1000000000000000e+01
0.0000000000000000e+00 2.0000000000000000e+02
-2.5000000000000000e-01 2.5000000000000000e-01
ITEM: ATOMS id type x y 
42508 5 -0.000239136 113.203 
42509 5 -0.500238 114.069 
42511 5 -1.00024 114.935 
42512 5 -0.000237448 114.935 
42514 5 -1.50024 115.801 
42515 5 -0.500237 115.801 
42518 5 -2.00024 116.667 
42519 5 -1.00024 116.667 
42520 5 -0.000235759 116.667 
42510 5 0.499762 114.069 
42513 5 0.999763 114.935 
42516 5 0.499763 115.801 
42517 5 1.49976 115.801 
42521 5 0.999764 116.667 
42522 5 1.99976 116.667 
ITEM: TIMESTEP
190000
ITEM: NUMBER OF ATOMS
15
ITEM: BOX BOUNDS ff fm pp
-4.1000000000000000e+01 4.1000000000000000e+01
0.0000000000000000e+00 2.0000000000000000e+02
-2.5000000000000000e-01 2.5000000000000000e-01
ITEM: ATOMS id type x y 
42508 5 -0.000248529 108.713 
42509 5 -0.500373 109.579 
42511 5 -1.0005 110.445 
42512 5 -0.000497907 110.445 
42514 5 -1.50062 111.311 
42515 5 -0.500623 111.311 
42518 5 -2.00075 112.177 
42519 5 -1.00075 112.177 
42520 5 -0.000747285 112.177 
42510 5 0.499627 109.579 
42513 5 0.999502 110.445 
42516 5 0.499377 111.311 
42517 5 1.49938 111.311 
42521 5 0.999253 112.177 
42522 5 1.99925 112.178 
ITEM: TIMESTEP
200000
ITEM: NUMBER OF ATOMS
15
ITEM: BOX BOUNDS ff fm pp
-4.1000000000000000e+01 4.1000000000000000e+01
0.0000000000000000e+00 2.0000000000000000e+02
-2.5000000000000000e-01 2.5000000000000000e-01
ITEM: ATOMS id type x y 
42509 5 -0.499203 104.903 
42511 5 -1.00005 105.768 
42512 5 -5.44586e-05 105.769 
42514 5 -1.50091 106.634 
42515 5 -0.500906 106.635 
42518 5 -2.00176 107.499 
42519 5 -1.00176 107.5 
42520 5 -0.0017575 107.501 
42508 5 0.00164858 104.037 
42510 5 0.500797 104.904 
42513 5 0.999945 105.77 
42516 5 0.499094 106.636 
42517 5 1.49909 106.637 
42521 5 0.998242 107.502 
42522 5 1.99824 107.503 
ITEM: TIMESTEP
210000
ITEM: NUMBER OF ATOMS
15
ITEM: BOX BOUNDS ff fm pp
-4.1000000000000000e+01 4.1000000000000000e+01
0.0000000000000000e+00 2.0000000000000000e+02
-2.5000000000000000e-01 2.5000000000000000e-01
ITEM: ATOMS id type x y 
42509 5 -0.499455 100.029 
42511 5 -1.00082 100.895 
42512 5 -0.000816676 100.896 
42514 5 -1.50218 101.76 
42515 5 -0.502177 101.761 
42518 5 -2.00354 102.625 
42519 5 -1.00354 102.627 
42520 5 -0.00353881 102.628 
42508 5 0.00190545 99.1641 
42510 5 0.500544 100.031 
42513 5 0.999182 100.898 
42516 5 0.497822 101.763 
42517 5 1.49782 101.764 
42521 5 0.99646 102.63 
42522 5 1.99646 102.631 
ITEM: TIMESTEP
220000
ITEM: NUMBER OF ATOMS
15
ITEM: BOX BOUNDS ff fm pp
-4.1000000000000000e+01 4.1000000000000000e+01
0.0000000000000000e+00 2.0000000000000000e+02
-2.5000000000000000e-01 2.5000000000000000e-01
ITEM: ATOMS id type x y 
42508 5 -0.000199061 94.0924 
42509 5 -0.501677 94.9576 
42511 5 -1.00315 95.8227 
42512 5 -0.00315541 95.8244 
42514 5 -1.50463 96.6879 
42515 5 -0.504633 96.6896 
42518 5 -2.00611 97.553 
42519 5 -1.00611 97.5547 
42520 5 -0.00611176 97.5564 
42510 5 0.498322 94.9593 
42513 5 0.996843 95.8261 
42516 5 0.495366 96.6913 
42517 5 1.49536 96.693 
42521 5 0.993887 97.5581 
42522 5 1.99389 97.5598 
ITEM: TIMESTEP
230000
ITEM: NUMBER OF ATOMS
15
ITEM: BOX BOUNDS ff fm pp
-4.1000000000000000e+01 4.1000000000000000e+01
0.0000000000000000e+00 2.0000000000000000e+02
-2.5000000000000000e-01 2.5000000000000000e-01
ITEM: ATOMS id type x y 
42508 5 -0.00412041 88.8283 
42509 5 -0.50493 89.6938 
42511 5 -1.00574 90.5593 
42512 5 -0.00574035 90.5603 
42514 5 -1.50655 91.4249 
42515 5 -0.50655 91.4258 
42518 5 -2.00736 92.2904 
42519 5 -1.00736 92.2913 
42520 5 -0.0073603 92.2923 
42510 5 0.495069 89.6947 
42513 5 0.994259 90.5612 
42516 5 0.493449 91.4267 
42517 5 1.49345 91.4277 
42521 5 0.992639 92.2932 
42522 5 1.99264 92.2941 
ITEM: TIMESTEP
240000
ITEM: NUMBER OF ATOMS
15
ITEM: BOX BOUNDS ff fm pp
-4.1000000000000000e+01 4.1000000000000000e+01
0.0000000000000000e+00 2.0000000000000000e+02
-2.5000000000000000e-01 2.5000000000000000e-01
ITEM: ATOMS id type x y 
42508 5 -0.00817814 83.383 
42509 5 -0.508379 84.2489 
42511 5 -1.00858 85.1148 
42512 5 -0.0085796 85.115 
42514 5 -1.50878 85.9807 
42515 5 -0.50878 85.9809 
42518 5 -2.00898 86.8466 
42519 5 -1.00898 86.8468 
42520 5 -0.00898106 86.847 
42510 5 0.491621 84.2491 
42513 5 0.99142 85.1153 
42516 5 0.49122 85.9811 
42517 5 1.49122 85.9814 
42521 5 0.991019 86.8473 
42522 5 1.99102 86.8475 
ITEM: TIMESTEP
250000
ITEM: NUMBER OF ATOMS
15
ITEM: BOX BOUNDS ff fm pp
-4.1000000000000000e+01 4.1000000000000000e+01
0.0000000000000000e+00 2.0000000000000000e+02
-2.5000000000000000e-01 2.5000000000000000e-01
ITEM: ATOMS id type x y 
42508 5 -0.0104096 77.763 
42509 5 -0.510614 78.6288 
42511 5 -1.01082 79.4947 
42512 5 -0.0108183 79.495 
42514 5 -1.51102 80.3606 
42515 5 -0.511023 80.3608 
42518 5 -2.01123 81.2265 
42519 5 -1.01123 81.2267 
42520 5 -0.0112269 81.2269 
42510 5 0.489386 78.6291 
42513 5 0.989182 79.4952 
42516 5 0.488977 80.3611 
42517 5 1.48898 80.3613 
42521 5 0.988773 81.2272 
42522 5 1.98877 81.2274 
ITEM: TIMESTEP
260000
ITEM: NUMBER OF ATOMS
15
ITEM: BOX BOUNDS ff fm pp
-4.1000000000000000e+01 4.1000000000000000e+01
0.0000000000000000e+00 2.0000000000000000e+02
-2.5000000000000000e-01 2.5000000000000000e-01
ITEM: ATOMS id type x y 
42508 5 -0.00266624 71.985 
42509 5 -0.506206 72.8489 
42511 5 -1.00975 73.7129 
42512 5 -0.00975447 73.717 
42514 5 -1.51329 74.5768 
42515 5 -0.513294 74.5809 
42518 5 -2.01683 75.4408 
42519 5 -1.01683 75.4449 
42520 5 -0.0168427 75.449 
42510 5 0.493785 72.853 
42513 5 0.990237 73.7211 
42516 5 0.486697 74.585 
42517 5 1.48669 74.5891 
42521 5 0.983149 75.453 
42522 5 1.98314 75.4571 
ITEM: TIMESTEP
270000
ITEM: NUMBER OF ATOMS
15
ITEM: BOX BOUNDS ff fm pp
-4.1000000000000000e+01 4.1000000000000000e+01
0.0000000000000000e+00 2.0000000000000000e+02
-2.5000000000000000e-01 2.5000000000000000e-01
ITEM: ATOMS id type x y 
42509 5 -0.499243 66.9176 
42511 5 -1.00491 67.7803 
42512 5 -0.00492889 67.7869 
42514 5 -1.51057 68.643 
42515 5 -0.510593 68.6496 
42518 5 -2.01624 69.5057 
42519 5 -1.01626 69.5123 
42520 5 -0.0162795 69.5188 
42508 5 0.00642174 66.0549 
42510 5 0.500736 66.9242 
42513 5 0.99505 67.7934 
42516 5 0.489385 68.6561 
42517 5 1.48936 68.6627 
42521 5 0.983699 69.5254 
42522 5 1.98368 69.5319 
ITEM: TIMESTEP
280000
ITEM: NUMBER OF ATOMS
15
ITEM: BOX BOUNDS ff fm pp
-4.1000000000000000e+01 4.1000000000000000e+01
0.0000000000000000e+00 2.0000000000000000e+02
-2.5000000000000000e-01 2.5000000000000000e-01
ITEM: ATOMS id type x y 
42509 5 -0.483892 60.8526 
42511 5 -0.989835 61.7152 
42514 5 -1.49578 62.5777 
42515 5 -0.495802 62.5846 
42518 5 -2.00172 63.4403 
42519 5 -1.00175 63.4471 
42520 5 -0.00176897 63.454 
42508 5 0.0220513 59.9901 
42510 5 0.516084 60.8595 
42512 5 0.0101412 61.7221 
42513 5 1.01012 61.7289 
42516 5 0.504174 62.5915 
42517 5 1.50415 62.5984 
42521 5 0.998207 63.4609 
42522 5 1.99818 63.4678 
ITEM: TIMESTEP
290000
ITEM: NUMBER OF ATOMS
15
ITEM: BOX BOUNDS ff fm pp
-4.1000000000000000e+01 4.1000000000000000e+01
0.0000000000000000e+00 2.0000000000000000e+02
-2.5000000000000000e-01 2.5000000000000000e-01
ITEM: ATOMS id type x y 
42509 5 -0.466576 54.6637 
42511 5 -0.967759 55.529 
42514 5 -1.46894 56.3943 
42515 5 -0.468943 56.3957 
42518 5 -1.97013 57.2596 
42519 5 -0.970127 57.261 
42508 5 0.0346071 53.7984 
42510 5 0.533423 54.665 
42512 5 0.0322398 55.5304 
42513 5 1.03224 55.5317 
42516 5 0.531056 56.397 
42517 5 1.53105 56.3984 
42520 5 0.0298725 57.2624 
42521 5 1.02987 57.2637 
42522 5 2.02987 57.2651 
ITEM: TIMESTEP
300000
ITEM: NUMBER OF ATOMS
15
ITEM: BOX BOUNDS ff fm pp
-4.1000000000000000e+01 4.1000000000000000e+01
0.0000000000000000e+00 2.0000000000000000e+02
-2.5000000000000000e-01 2.5000000000000000e-01
ITEM: ATOMS id type x y 
42509 5 -0.468333 48.3513 
42511 5 -0.955209 49.2247 
42514 5 -1.44208 50.0982 
42515 5 -0.442198 50.0831 
42518 5 -1.92896 50.9716 
42519 5 -0.929074 50.9565 
42508 5 0.0185427 47.4778 
42510 5 0.531553 48.3362 
42512 5 0.0446776 49.2096 
42513 5 1.04456 49.1945 
42516 5 0.557688 50.068 
42517 5 1.55757 50.0529 
42520 5 0.0708126 50.9414 
42521 5 1.0707 50.9263 
42522 5 2.07058 50.9112 
ITEM: TIMESTEP
310000
ITEM: NUMBER OF ATOMS
15
ITEM: BOX BOUNDS ff fm pp
-4.1000000000000000e+01 4.1000000000000000e+01
0.0000000000000000e+00 2.0000000000000000e+02
-2.5000000000000000e-01 2.5000000000000000e-01
ITEM: ATOMS id type x y 
42508 5 -0.0392358 41.065 
42509 5 -0.498875 41.9531 
42511 5 -0.958514 42.8411 
42514 5 -1.41815 43.7292 
42515 5 -0.419212 43.6832 
42518 5 -1.87779 44.6173 
42519 5 -0.878851 44.5713 
42510 5 0.500067 41.9071 
42512 5 0.0404273 42.7951 
42513 5 1.03937 42.7491 
42516 5 0.57973 43.6372 
42517 5 1.57867 43.5912 
42520 5 0.12009 44.5253 
42521 5 1.11903 44.4793 
42522 5 2.11797 44.4333 
ITEM: TIMESTEP
320000
ITEM: NUMBER OF ATOMS
15
ITEM: BOX BOUNDS ff fm pp
-4.1000000000000000e+01 4.1000000000000000e+01
0.0000000000000000e+00 2.0000000000000000e+02
-2.5000000000000000e-01 2.5000000000000000e-01
ITEM: ATOMS id type x y 
42508 5 -0.105701 34.5307 
42509 5 -0.533761 35.4345 
42511 5 -0.961821 36.3382 
42515 5 -0.393181 37.1608 
42514 5 -1.38988 37.2419 
42518 5 -1.81794 38.1456 
42519 5 -0.821241 38.0645 
42510 5 0.462939 35.3533 
42512 5 0.0348791 36.257 
42513 5 1.03158 36.1759 
42516 5 0.60352 37.0796 
42517 5 1.60022 36.9984 
42520 5 0.175459 37.9833 
42521 5 1.17216 37.9021 
42522 5 2.16886 37.821 
ITEM: TIMESTEP
330000
ITEM: NUMBER OF ATOMS
15
ITEM: BOX BOUNDS ff fm pp
-4.1000000000000000e+01 4.1000000000000000e+01
0.0000000000000000e+00 2.0000000000000000e+02
-2.5000000000000000e-01 2.5000000000000000e-01
ITEM: ATOMS id type x y 
42508 5 -0.171308 27.8814 
42509 5 -0.567488 28.7995 
42511 5 -0.963668 29.7177 
42515 5 -0.366597 30.5198 
42514 5 -1.35985 30.6358 
42518 5 -1.75603 31.554 
42519 5 -0.762777 31.438 
42510 5 0.425763 28.6836 
42512 5 0.0295831 29.6017 
42513 5 1.02283 29.4857 
42516 5 0.626654 30.4039 
42517 5 1.6199 30.2879 
42522 5 2.21698 31.09 
42520 5 0.230474 31.322 
42521 5 1.22372 31.206 
ITEM: TIMESTEP
340000
ITEM: NUMBER OF ATOMS
15
ITEM: BOX BOUNDS ff fm pp
-4.1000000000000000e+01 4.1000000000000000e+01
0.0000000000000000e+00 2.0000000000000000e+02
-2.5000000000000000e-01 2.5000000000000000e-01
ITEM: ATOMS id type x y 
42508 5 -0.17295 21.1363 
42509 5 -0.551043 22.0621 
42511 5 -0.929136 22.9878 
42514 5 -1.30723 23.9136 
42515 5 -0.316445 23.7781 
42518 5 -1.68532 24.8393 
42519 5 -0.694538 24.7039 
42510 5 0.439741 21.9266 
42513 5 1.05243 22.7169 
42512 5 0.0616483 22.8524 
42516 5 0.674339 23.6427 
42517 5 1.66512 23.5072 
42520 5 0.296246 24.5684 
42521 5 1.28703 24.433 
42522 5 2.27781 24.2975 
ITEM: TIMESTEP
350000
ITEM: NUMBER OF ATOMS
15
ITEM: BOX BOUNDS ff fm pp
-4.1000000000000000e+01 4.1000000000000000e+01
0.0000000000000000e+00 2.0000000000000000e+02
-2.5000000000000000e-01 2.5000000000000000e-01
ITEM: ATOMS id type x y 
42508 5 -0.105348 14.2263 
42509 5 -0.485024 15.1514 
42511 5 -0.8647 16.0765 
42514 5 -1.24438 17.0016 
42515 5 -0.253362 16.8679 
42518 5 -1.62405 17.9267 
42519 5 -0.633038 17.7929 
42510 5 0.50599 15.0177 
42512 5 0.126314 15.9428 
42513 5 1.11733 15.809 
42516 5 0.737653 16.7341 
42517 5 1.72867 16.6003 
42520 5 0.357977 17.6592 
42521 5 1.34899 17.5254 
42522 5 2.34001 17.3917 
ITEM: TIMESTEP
360000
ITEM: NUMBER OF ATOMS
15
ITEM: BOX BOUNDS ff fm pp
-4.1000000000000000e+01 4.1000000000000000e+01
0.0000000000000000e+00 2.0000000000000000e+02
-2.5000000000000000e-01 2.5000000000000000e-01
ITEM: ATOMS id type x y 
42508 5 -0.296944 7.4362 
42509 5 -0.578678 8.39567 
42511 5 -0.860413 9.35514 
42515 5 -0.170337 10.0788 
42514 5 -1.14215 10.3146 
42518 5 -1.42388 11.2741 
42519 5 -0.452071 11.0383 
42510 5 0.393132 8.15991 
42513 5 1.08321 8.88361 
42512 5 0.111398 9.11938 
42516 5 0.801474 9.84308 
42517 5 1.77328 9.60732 
42521 5 1.49155 10.5668 
42522 5 2.46336 10.331 
42520 5 0.51974 10.8026 
ITEM: TIMESTEP
370000
ITEM: NUMBER OF ATOMS
15
ITEM: BOX BOUNDS ff fm pp
-4.1000000000000000e+01 4.1000000000000000e+01
0.0000000000000000e+00 2.0000000000000000e+02
-2.5000000000000000e-01 2.5000000000000000e-01
ITEM: ATOMS id type x y 
42508 5 -2.97826 4.62604 
42510 5 -2.03988 4.97158 
42513 5 -1.1015 5.31712 
42509 5 -2.80834 5.61148 
42512 5 -1.86996 5.95702 
42511 5 -2.63842 6.59691 
42516 5 -0.931579 6.30256 
42515 5 -1.70004 6.94245 
42514 5 -2.4685 7.58235 
42520 5 -0.761659 7.28799 
42519 5 -1.53012 7.92789 
42518 5 -2.29858 8.56778 
42517 5 -0.163118 5.66266 
42522 5 0.775263 6.0082 
42521 5 0.00680187 6.64809 
ITEM: TIMESTEP
380000
ITEM: NUMBER OF ATOMS
15
ITEM: BOX BOUNDS ff fm pp
-4.1000000000000000e+01 4.1000000000000000e+01
0.0000000000000000e+00 2.0000000000000000e+02
-2.5000000000000000e-01 2.5000000000000000e-01
ITEM: ATOMS id type x y 
42508 5 -6.73185 6.05913 
42510 5 -5.83113 6.49347 
42509 5 -6.65766 7.05635 
42513 5 -4.9304 6.9278 
42512 5 -5.75694 7.49069 
42516 5 -4.85621 7.92503 
42517 5 -4.02968 7.36214 
42522 5 -3.12895 7.79648 
42511 5 -6.58348 8.05357 
42515 5 -5.68275 8.48791 
42521 5 -3.95549 8.35937 
42514 5 -6.50929 9.05079 
42520 5 -4.78203 8.92225 
42519 5 -5.60856 9.48513 
42518 5 -6.4351 10.048 
ITEM: TIMESTEP
390000
ITEM: NUMBER OF ATOMS
15
ITEM: BOX BOUNDS ff fm pp
-4.1000000000000000e+01 4.1000000000000000e+01
0.0000000000000000e+00 2.0000000000000000e+02
-2.5000000000000000e-01 2.5000000000000000e-01
ITEM: ATOMS id type x y 
42508 5 -10.3049 7.27806 
42510 5 -9.444 7.78678 
42509 5 -10.315 8.27799 
42513 5 -8.58309 8.2955 
42512 5 -9.45413 8.78671 
42517 5 -7.72218 8.80422 
42511 5 -10.3252 9.27792 
42516 5 -8.59323 9.29543 
42522 5 -6.86128 9.31294 
42514 5 -10.3353 10.2778 
42515 5 -9.46427 9.78664 
42520 5 -8.60336 10.2954 
42521 5 -7.73232 9.80415 
42519 5 -9.4744 10.7866 
42518 5 -10.3454 11.2778 
ITEM: TIMESTEP
400000
ITEM: NUMBER OF ATOMS
15
ITEM: BOX BOUNDS ff fm pp
-4.1000000000000000e+01 4.1000000000000000e+01
0.0000000000000000e+00 2.0000000000000000e+02
-2.5000000000000000e-01 2.5000000000000000e-01
ITEM: ATOMS id type x y 
42508 5 -13.5843 8.22134 
42510 5 -12.7747 8.80821 
42509 5 -13.6878 9.21596 
42513 5 -11.965 9.39507 
42511 5 -13.7912 10.2106 
42512 5 -12.8781 9.80282 
42517 5 -11.1554 9.98194 
42515 5 -12.9816 10.7974 
42516 5 -12.0685 10.3897 
42522 5 -10.3457 10.5688 
42514 5 -13.8947 11.2052 
42520 5 -12.1719 11.3843 
42521 5 -11.2588 10.9766 
42519 5 -13.085 11.7921 
42518 5 -13.9981 12.1998 
ITEM: TIMESTEP
410000
ITEM: NUMBER OF ATOMS
15
ITEM: BOX BOUNDS ff fm pp
-4.1000000000000000e+01 4.1000000000000000e+01
0.0000000000000000e+00 2.0000000000000000e+02
-2.5000000000000000e-01 2.5000000000000000e-01
ITEM: ATOMS id type x y 
42508 5 -16.6889 8.93295 
42510 5 -15.9324 9.58697 
42509 5 -16.877 9.91507 
42513 5 -15.1759 10.241 
42512 5 -16.1206 10.5691 
42511 5 -17.0652 10.8972 
42516 5 -15.3641 11.2231 
42517 5 -14.4195 10.895 
42514 5 -17.2534 11.8793 
42515 5 -16.3088 11.5512 
42521 5 -14.6077 11.8771 
42522 5 -13.663 11.549 
42519 5 -16.497 12.5333 
42520 5 -15.5523 12.2052 
42518 5 -17.4416 12.8614 
ITEM: TIMESTEP
420000
ITEM: NUMBER OF ATOMS
15
ITEM: BOX BOUNDS ff fm pp
-4.1000000000000000e+01 4.1000000000000000e+01
0.0000000000000000e+00 2.0000000000000000e+02
-2.5000000000000000e-01 2.5000000000000000e-01
ITEM: ATOMS id type x y 
42508 5 -19.6257 9.43343 
42510 5 -18.9187 10.1406 
42509 5 -19.8846 10.3993 
42513 5 -18.2116 10.8477 
42511 5 -20.1435 11.3652 
42512 5 -19.1776 11.1064 
42516 5 -18.4705 11.8136 
42517 5 -17.5046 11.5548 
42514 5 -20.4024 12.3311 
42515 5 -19.4364 12.0723 
42521 5 -17.7634 12.5207 
42522 5 -16.7975 12.2619 
42519 5 -19.6953 13.0382 
42520 5 -18.7294 12.7794 
42518 5 -20.6613 13.297 
ITEM: TIMESTEP
430000
ITEM: NUMBER OF ATOMS
15
ITEM: BOX BOUNDS ff fm pp
-4.1000000000000000e+01 4.1000000000000000e+01
0.0000000000000000e+00 2.0000000000000000e+02
-2.5000000000000000e-01 2.5000000000000000e-01
ITEM: ATOMS id type x y 
42508 5 -22.4362 9.71334 
42509 5 -22.755 10.6611 
42510 5 -21.7747 10.4633 
42512 5 -22.0936 11.4111 
42513 5 -21.1133 11.2133 
42511 5 -23.0738 11.6089 
42517 5 -20.4519 11.9633 
42514 5 -23.3926 12.5567 
42515 5 -22.4124 12.3589 
42516 5 -21.4321 12.1611 
42520 5 -21.751 13.1089 
42521 5 -20.7707 12.9111 
42522 5 -19.7905 12.7133 
42518 5 -23.7114 13.5045 
42519 5 -22.7312 13.3067 
ITEM: TIMESTEP
440000
ITEM: NUMBER OF ATOMS
15
ITEM: BOX BOUNDS ff fm pp
-4.1000000000000000e+01 4.1000000000000000e+01
0.0000000000000000e+00 2.0000000000000000e+02
-2.5000000000000000e-01 2.5000000000000000e-01
ITEM: ATOMS id type x y 
42508 5 -25.1451 9.78466 
42509 5 -25.5126 10.7147 
42510 5 -24.5234 10.5679 
42513 5 -23.9017 11.3512 
42511 5 -25.8801 11.6447 
42512 5 -24.8909 11.4979 
42514 5 -26.2476 12.5747 
42515 5 -25.2584 12.4279 
42516 5 -24.2692 12.2812 
42517 5 -23.2801 12.1344 
42520 5 -24.6368 13.2112 
42521 5 -23.6476 13.0644 
42522 5 -22.6584 12.9177 
42518 5 -26.6151 13.5046 
42519 5 -25.6259 13.3579 
ITEM: TIMESTEP
450000
ITEM: NUMBER OF ATOMS
15
ITEM: BOX BOUNDS ff fm pp
-4.1000000000000000e+01 4.1000000000000000e+01
0.0000000000000000e+00 2.0000000000000000e+02
-2.5000000000000000e-01 2.5000000000000000e-01
ITEM: ATOMS id type x y 
42508 5 -27.5976 9.65099 
42509 5 -28.0261 10.5545 
42510 5 -27.0293 10.4738 
42512 5 -27.4578 11.3773 
42513 5 -26.4611 11.2966 
42511 5 -28.4545 11.4581 
42514 5 -28.883 12.3616 
42515 5 -27.8863 12.2809 
42516 5 -26.8895 12.2002 
42517 5 -25.8928 12.1194 
42519 5 -28.3147 13.1844 
42520 5 -27.318 13.1037 
42521 5 -26.3213 13.023 
42522 5 -25.3245 12.9423 
42518 5 -29.3115 13.2651 
ITEM: TIMESTEP
460000
ITEM: NUMBER OF ATOMS
15
ITEM: BOX BOUNDS ff fm pp
-4.1000000000000000e+01 4.1000000000000000e+01
0.0000000000000000e+00 2.0000000000000000e+02
-2.5000000000000000e-01 2.5000000000000000e-01
ITEM: ATOMS id type x y 
42508 5 -29.6957 9.30284 
42509 5 -30.1946 10.1695 
42510 5 -29.1946 10.1682 
42511 5 -30.6935 11.0361 
42512 5 -29.6935 11.0348 
42513 5 -28.6935 11.0336 
42514 5 -31.1924 11.9028 
42515 5 -30.1924 11.9015 
42516 5 -29.1924 11.9002 
42517 5 -28.1924 11.8989 
42518 5 -31.6913 12.7694 
42519 5 -30.6913 12.7681 
42520 5 -29.6913 12.7668 
42521 5 -28.6913 12.7656 
42522 5 -27.6913 12.7643 
ITEM: TIMESTEP
470000
ITEM: NUMBER OF ATOMS
15
ITEM: BOX BOUNDS ff fm pp
-4.1000000000000000e+01 4.1000000000000000e+01
0.0000000000000000e+00 2.0000000000000000e+02
-2.5000000000000000e-01 2.5000000000000000e-01
ITEM: ATOMS id type x y 
42508 5 -31.2635 8.85773 
42509 5 -31.8189 9.68926 
42510 5 -30.8211 9.7545 
42511 5 -32.3744 10.5208 
42512 5 -31.3765 10.586 
42513 5 -30.3786 10.6513 
42514 5 -32.9298 11.3523 
42515 5 -31.9319 11.4176 
42516 5 -30.9341 11.4828 
42517 5 -29.9362 11.5481 
42518 5 -33.4853 12.1839 
42519 5 -32.4874 12.2491 
42520 5 -31.4895 12.3143 
42521 5 -30.4916 12.3796 
42522 5 -29.4938 12.4448 
ITEM: TIMESTEP
480000
ITEM: NUMBER OF ATOMS
15
ITEM: BOX BOUNDS ff fm pp
-4.1000000000000000e+01 4.1000000000000000e+01
0.0000000000000000e+00 2.0000000000000000e+02
-2.5000000000000000e-01 2.5000000000000000e-01
ITEM: ATOMS id type x y 
42508 5 -32.3395 8.34615 
42509 5 -32.9532 9.13567 
42510 5 -31.9626 9.27238 
42511 5 -33.5669 9.92519 
42512 5 -32.5763 10.0619 
42514 5 -34.1806 10.7147 
42513 5 -31.5857 10.1986 
42515 5 -33.19 10.8514 
42516 5 -32.1993 10.9881 
42517 5 -31.2087 11.1248 
42518 5 -34.7943 11.5042 
42519 5 -33.8037 11.6409 
42520 5 -32.813 11.7776 
42521 5 -31.8224 11.9143 
42522 5 -30.8318 12.051 
ITEM: TIMESTEP
490000
ITEM: NUMBER OF ATOMS
15
ITEM: BOX BOUNDS ff fm pp
-4.1000000000000000e+01 4.1000000000000000e+01
0.0000000000000000e+00 2.0000000000000000e+02