ITEM: TIMESTEP
0
ITEM: NUMBER OF ATOMS
15
ITEM: BOX BOUNDS ff fm pp
-4.1000000000000000e+01 4.1000000000000000e+01
0.0000000000000000e+00 2.0000000000000000e+02
-2.5000000000000000e-01 2.5000000000000000e-01
ITEM: ATOMS id type x y 
42464 2 -0.5 140.866 
42466 2 -1 141.732 
42469 2 -1.5 142.598 
42470 2 -0.5 142.598 
42473 2 -2 143.464 
42474 2 -1 143.464 
42463 2 0 140 
42465 2 0.5 140.866 
42467 2 0 141.732 
42468 2 1 141.732 
42471 2 0.5 142.598 
42472 2 1.5 142.598 
42475 2 0 143.464 
42476 2 1 143.464 
42477 2 2 143.464 
ITEM: TIMESTEP
10000
ITEM: NUMBER OF ATOMS
15
ITEM: BOX BOUNDS ff fm pp
-4.1000000000000000e+01 4.1000000000000000e+01
0.0000000000000000e+00 2.0000000000000000e+02
-2.5000000000000000e-01 2.5000000000000000e-01
ITEM: ATOMS id type x y 
42463 2 -2.1279e-17 139.87 
42464 2 -0.5 140.736 
42466 2 -1 141.602 
42467 2 -1.66949e-17 141.602 
42469 2 -1.5 142.468 
42470 2 -0.5 142.468 
42473 2 -2 143.334 
42474 2 -1 143.334 
42475 2 -1.21109e-17 143.334 
42465 2 0.5 140.736 
42468 2 1 141.602 
42471 2 0.5 142.468 
42472 2 1.5 142.468 
42476 2 1 143.334 
42477 2 2 143.334 
ITEM: TIMESTEP
20000
ITEM: NUMBER OF ATOMS
15
ITEM: BOX BOUNDS ff fm pp
-4.1000000000000000e+01 4.1000000000000000e+01
0.0000000000000000e+00 2.0000000000000000e+02
-2.5000000000000000e-01 2.5000000000000000e-01
ITEM: ATOMS id type x y 
42463 2 -9.55675e-17 139.488 
42464 2 -0.5 140.354 
42466 2 -1 141.22 
42467 2 -6.91662e-17 141.22 
42469 2 -1.5 142.086 
42470 2 -0.5 142.086 
42473 2 -2 142.952 
42474 2 -1 142.952 
42475 2 -4.2765e-17 142.952 
42465 2 0.5 140.354 
42468 2 1 141.22 
42471 2 0.5 142.086 
42472 2 1.5 142.086 
42476 2 1 142.952 
42477 2 2 142.952 
ITEM: TIMESTEP
30000
ITEM: NUMBER OF ATOMS
15
ITEM: BOX BOUNDS ff fm pp
-4.1000000000000000e+01 4.1000000000000000e+01
0.0000000000000000e+00 2.0000000000000000e+02
-2.5000000000000000e-01 2.5000000000000000e-01
ITEM: ATOMS id type x y 
42463 2 -2.04636e-16 138.856 
42464 2 -0.5 139.722 
42466 2 -1 140.588 
42467 2 -1.53284e-16 140.588 
42469 2 -1.5 141.454 
42470 2 -0.5 141.454 
42473 2 -2 142.32 
42474 2 -1 142.32 
42475 2 -1.01932e-16 142.32 
42465 2 0.5 139.722 
42468 2 1 140.588 
42471 2 0.5 141.454 
42472 2 1.5 141.454 
42476 2 1 142.32 
42477 2 2 142.32 
ITEM: TIMESTEP
40000
ITEM: NUMBER OF ATOMS
15
ITEM: BOX BOUNDS ff fm pp
-4.1000000000000000e+01 4.1000000000000000e+01
0.0000000000000000e+00 2.0000000000000000e+02
-2.5000000000000000e-01 2.5000000000000000e-01
ITEM: ATOMS id type x y 
42463 2 -3.26869e-16 137.975 
42464 2 -0.5 138.841 
42466 2 -1 139.707 
42467 2 -2.63655e-16 139.707 
42469 2 -1.5 140.573 
42470 2 -0.5 140.573 
42473 2 -2 141.439 
42474 2 -1 141.439 
42475 2 -2.00441e-16 141.439 
42465 2 0.5 138.841 
42468 2 1 139.707 
42471 2 0.5 140.573 
42472 2 1.5 140.573 
42476 2 1 141.439 
42477 2 2 141.439 
ITEM: TIMESTEP
50000
ITEM: NUMBER OF ATOMS
15
ITEM: BOX BOUNDS ff fm pp
-4.1000000000000000e+01 4.1000000000000000e+01
0.0000000000000000e+00 2.0000000000000000e+02
-2.5000000000000000e-01 2.5000000000000000e-01
ITEM: ATOMS id type x y 
42463 2 -4.68348e-16 136.843 
42464 2 -0.5 137.709 
42466 2 -1 138.575 
42467 2 -4.01799e-16 138.575 
42469 2 -1.5 139.441 
42470 2 -0.5 139.441 
42473 2 -2 140.307 
42474 2 -1 140.307 
42475 2 -3.35251e-16 140.307 
42465 2 0.5 137.709 
42468 2 1 138.575 
42471 2 0.5 139.441 
42472 2 1.5 139.441 
42476 2 1 140.307 
42477 2 2 140.307 
ITEM: TIMESTEP
60000
ITEM: NUMBER OF ATOMS
15
ITEM: BOX BOUNDS ff fm pp
-4.1000000000000000e+01 4.1000000000000000e+01
0.0000000000000000e+00 2.0000000000000000e+02
-2.5000000000000000e-01 2.5000000000000000e-01
ITEM: ATOMS id type x y 
42463 2 -6.37562e-16 135.461 
42464 2 -0.5 136.327 
42466 2 -1 137.193 
42467 2 -5.69839e-16 137.193 
42469 2 -1.5 138.059 
42470 2 -0.5 138.059 
42473 2 -2 138.925 
42474 2 -1 138.925 
42475 2 -5.02116e-16 138.925 
42465 2 0.5 136.327 
42468 2 1 137.193 
42471 2 0.5 138.059 
42472 2 1.5 138.059 
42476 2 1 138.925 
42477 2 2 138.925 
ITEM: TIMESTEP
70000
ITEM: NUMBER OF ATOMS
15
ITEM: BOX BOUNDS ff fm pp
-4.1000000000000000e+01 4.1000000000000000e+01
0.0000000000000000e+00 2.0000000000000000e+02
-2.5000000000000000e-01 2.5000000000000000e-01
ITEM: ATOMS id type x y 
42463 2 -8.35801e-16 133.829 
42464 2 -0.5 134.695 
42466 2 -1 135.561 
42467 2 -7.68097e-16 135.561 
42469 2 -1.5 136.427 
42470 2 -0.5 136.427 
42473 2 -2 137.293 
42474 2 -1 137.293 
42475 2 -7.00393e-16 137.293 
42465 2 0.5 134.695 
42468 2 1 135.561 
42471 2 0.5 136.427 
42472 2 1.5 136.427 
42476 2 1 137.293 
42477 2 2 137.293 
ITEM: TIMESTEP
80000
ITEM: NUMBER OF ATOMS
15
ITEM: BOX BOUNDS ff fm pp
-4.1000000000000000e+01 4.1000000000000000e+01
0.0000000000000000e+00 2.0000000000000000e+02
-2.5000000000000000e-01 2.5000000000000000e-01
ITEM: ATOMS id type x y 
42463 2 -1.0636e-15 131.947 
42464 2 -0.5 132.813 
42466 2 -1 133.679 
42467 2 -9.96707e-16 133.679 
42469 2 -1.5 134.545 
42470 2 -0.5 134.545 
42473 2 -2 135.411 
42474 2 -1 135.411 
42475 2 -9.29812e-16 135.411 
42465 2 0.5 132.813 
42468 2 1 133.679 
42471 2 0.5 134.545 
42472 2 1.5 134.545 
42476 2 1 135.411 
42477 2 2 135.411 
ITEM: TIMESTEP
90000
ITEM: NUMBER OF ATOMS
15
ITEM: BOX BOUNDS ff fm pp
-4.1000000000000000e+01 4.1000000000000000e+01
0.0000000000000000e+00 2.0000000000000000e+02
-2.5000000000000000e-01 2.5000000000000000e-01
ITEM: ATOMS id type x y 
42463 2 -1.32392e-15 129.815 
42464 2 -0.5 130.681 
42466 2 -1 131.547 
42467 2 -1.25641e-15 131.547 
42469 2 -1.5 132.413 
42470 2 -0.5 132.413 
42473 2 -2 133.279 
42474 2 -1 133.279 
42475 2 -1.1889e-15 133.279 
42465 2 0.5 130.681 
42468 2 1 131.547 
42471 2 0.5 132.413 
42472 2 1.5 132.413 
42476 2 1 133.279 
42477 2 2 133.279 
ITEM: TIMESTEP
100000
ITEM: NUMBER OF ATOMS
15
ITEM: BOX BOUNDS ff fm pp
-4.1000000000000000e+01 4.1000000000000000e+01
0.0000000000000000e+00 2.0000000000000000e+02
-2.5000000000000000e-01 2.5000000000000000e-01
ITEM: ATOMS id type x y 
42463 2 -1.60159e-15 127.434 
42464 2 -0.5 128.3 
42466 2 -1 129.166 
42467 2 -1.54341e-15 129.166 
42469 2 -1.5 130.032 
42470 2 -0.5 130.032 
42473 2 -2 130.898 
42474 2 -1 130.898 
42475 2 -1.48523e-15 130.898 
42465 2 0.5 128.3 
42468 2 1 129.166 
42471 2 0.5 130.032 
42472 2 1.5 130.032 
42476 2 1 130.898 
42477 2 2 130.898 
ITEM: TIMESTEP
110000
ITEM: NUMBER OF ATOMS
15
ITEM: BOX BOUNDS ff fm pp
-4.1000000000000000e+01 4.1000000000000000e+01
0.0000000000000000e+00 2.0000000000000000e+02
-2.5000000000000000e-01 2.5000000000000000e-01
ITEM: ATOMS id type x y 
42463 2 -1.91143e-15 124.802 
42464 2 -0.5 125.668 
42466 2 -1 126.534 
42467 2 -1.86141e-15 126.534 
42469 2 -1.5 127.4 
42470 2 -0.5 127.4 
42473 2 -2 128.266 
42474 2 -1 128.266 
42475 2 -1.81139e-15 128.266 
42465 2 0.5 125.668 
42468 2 1 126.534 
42471 2 0.5 127.4 
42472 2 1.5 127.4 
42476 2 1 128.266 
42477 2 2 128.266 
ITEM: TIMESTEP
120000
ITEM: NUMBER OF ATOMS
15
ITEM: BOX BOUNDS ff fm pp
-4.1000000000000000e+01 4.1000000000000000e+01
0.0000000000000000e+00 2.0000000000000000e+02
-2.5000000000000000e-01 2.5000000000000000e-01
ITEM: ATOMS id type x y 
42463 2 -2.25894e-15 121.92 
42464 2 -0.5 122.786 
42466 2 -1 123.652 
42467 2 -2.2118e-15 123.652 
42469 2 -1.5 124.518 
42470 2 -0.5 124.518 
42473 2 -2 125.384 
42474 2 -1 125.384 
42475 2 -2.16465e-15 125.384 
42465 2 0.5 122.786 
42468 2 1 123.652 
42471 2 0.5 124.518 
42472 2 1.5 124.518 
42476 2 1 125.384 
42477 2 2 125.384 
ITEM: TIMESTEP
130000
ITEM: NUMBER OF ATOMS
15
ITEM: BOX BOUNDS ff fm pp
-4.1000000000000000e+01 4.1000000000000000e+01
0.0000000000000000e+00 2.0000000000000000e+02
-2.5000000000000000e-01 2.5000000000000000e-01
ITEM: ATOMS id type x y 
42464 2 -0.496862 119.663 
42466 2 -0.997952 120.528 
42469 2 -1.49904 121.394 
42470 2 -0.499043 121.395 
42473 2 -2.00013 122.259 
42474 2 -1.00013 122.26 
42475 2 -0.000133979 122.262 
42463 2 0.00422831 118.798 
42465 2 0.503137 119.664 
42467 2 0.00204716 120.53 
42468 2 1.00205 120.531 
42471 2 0.500956 121.396 
42472 2 1.50096 121.398 
42476 2 0.999865 122.263 
42477 2 1.99986 122.264 
ITEM: TIMESTEP
140000
ITEM: NUMBER OF ATOMS
15
ITEM: BOX BOUNDS ff fm pp
-4.1000000000000000e+01 4.1000000000000000e+01
0.0000000000000000e+00 2.0000000000000000e+02
-2.5000000000000000e-01 2.5000000000000000e-01
ITEM: ATOMS id type x y 
42464 2 -0.495838 116.326 
42466 2 -0.998632 117.19 
42469 2 -1.50143 118.054 
42470 2 -0.501431 118.058 
42473 2 -2.00422 118.919 
42474 2 -1.00422 118.922 
42475 2 -0.00422964 118.925 
42463 2 0.00695554 115.461 
42465 2 0.504157 116.329 
42467 2 0.00136295 117.193 
42468 2 1.00136 117.196 
42471 2 0.498564 118.061 
42472 2 1.49856 118.064 
42476 2 0.995765 118.928 
42477 2 1.99576 118.932 
ITEM: TIMESTEP
150000
ITEM: NUMBER OF ATOMS
15
ITEM: BOX BOUNDS ff fm pp
-4.1000000000000000e+01 4.1000000000000000e+01
0.0000000000000000e+00 2.0000000000000000e+02
-2.5000000000000000e-01 2.5000000000000000e-01
ITEM: ATOMS id type x y 
42464 2 -0.496317 112.775 
42466 2 -1.00037 113.638 
42467 2 -0.00038407 113.643 
42469 2 -1.50443 114.502 
42470 2 -0.50444 114.506 
42473 2 -2.00848 115.365 
42474 2 -1.0085 115.37 
42475 2 -0.00850646 115.375 
42463 2 0.00773832 111.911 
42465 2 0.503672 112.779 
42468 2 0.999605 113.648 
42471 2 0.495549 114.511 
42472 2 1.49554 114.516 
42476 2 0.991483 115.38 
42477 2 1.99147 115.384 
ITEM: TIMESTEP
160000
ITEM: NUMBER OF ATOMS
15
ITEM: BOX BOUNDS ff fm pp
-4.1000000000000000e+01 4.1000000000000000e+01
0.0000000000000000e+00 2.0000000000000000e+02
-2.5000000000000000e-01 2.5000000000000000e-01
ITEM: ATOMS id type x y 
42464 2 -0.492441 108.985 
42466 2 -0.998698 109.847 
42469 2 -1.50496 110.709 
42470 2 -0.504982 110.717 
42473 2 -2.01121 111.572 
42474 2 -1.01124 111.579 
42475 2 -0.0112649 111.586 
42463 2 0.0138163 108.122 
42465 2 0.507533 108.992 
42467 2 0.00127566 109.854 
42468 2 1.00125 109.862 
42471 2 0.494992 110.724 
42472 2 1.49497 110.731 
42476 2 0.988709 111.594 
42477 2 1.98868 111.601 
ITEM: TIMESTEP
170000
ITEM: NUMBER OF ATOMS
15
ITEM: BOX BOUNDS ff fm pp
-4.1000000000000000e+01 4.1000000000000000e+01
0.0000000000000000e+00 2.0000000000000000e+02
-2.5000000000000000e-01 2.5000000000000000e-01
ITEM: ATOMS id type x y 
42464 2 -0.474998 104.951 
42466 2 -0.984829 105.812 
42469 2 -1.49466 106.672 
42470 2 -0.494724 106.683 
42473 2 -2.00449 107.532 
42474 2 -1.00456 107.544 
42475 2 -0.00462021 107.555 
42463 2 0.0348332 104.091 
42465 2 0.524937 104.963 
42467 2 0.0151065 105.823 
42468 2 1.01504 105.834 
42471 2 0.505211 106.695 
42472 2 1.50515 106.706 
42476 2 0.995315 107.566 
42477 2 1.99525 107.578 
ITEM: TIMESTEP
180000
ITEM: NUMBER OF ATOMS
15
ITEM: BOX BOUNDS ff fm pp
-4.1000000000000000e+01 4.1000000000000000e+01
0.0000000000000000e+00 2.0000000000000000e+02
-2.5000000000000000e-01 2.5000000000000000e-01
ITEM: ATOMS id type x y 
42464 2 -0.447144 100.669 
42466 2 -0.965123 101.525 
42469 2 -1.4831 102.38 
42470 2 -0.483321 102.401 
42473 2 -2.00108 103.235 
42474 2 -1.0013 103.256 
42475 2 -0.0015184 103.277 
42463 2 0.0708357 99.8138 
42465 2 0.552638 100.69 
42467 2 0.0346587 101.545 
42468 2 1.03444 101.566 
42471 2 0.516461 102.422 
42472 2 1.51624 102.443 
42476 2 0.998263 103.298 
42477 2 1.99805 103.319 
ITEM: TIMESTEP
190000
ITEM: NUMBER OF ATOMS
15
ITEM: BOX BOUNDS ff fm pp
-4.1000000000000000e+01 4.1000000000000000e+01
0.0000000000000000e+00 2.0000000000000000e+02
-2.5000000000000000e-01 2.5000000000000000e-01
ITEM: ATOMS id type x y 
42464 2 -0.421771 96.2064 
42466 2 -0.945935 97.058 
42469 2 -1.4701 97.9096 
42470 2 -0.470495 97.9377 
42473 2 -1.99426 98.7612 
42474 2 -0.994658 98.7893 
42463 2 0.102393 95.3548 
42465 2 0.577833 96.2346 
42467 2 0.0536692 97.0861 
42468 2 1.05327 97.1143 
42471 2 0.52911 97.9659 
42472 2 1.52871 97.994 
42475 2 0.00494588 98.8175 
42476 2 1.00455 98.8456 
42477 2 2.00415 98.8737 
ITEM: TIMESTEP
200000
ITEM: NUMBER OF ATOMS
15
ITEM: BOX BOUNDS ff fm pp
-4.1000000000000000e+01 4.1000000000000000e+01
0.0000000000000000e+00 2.0000000000000000e+02
-2.5000000000000000e-01 2.5000000000000000e-01
ITEM: ATOMS id type x y 
42464 2 -0.392262 91.5379 
42466 2 -0.922118 92.3859 
42469 2 -1.45197 93.234 
42470 2 -0.452582 93.2688 
42473 2 -1.98183 94.082 
42474 2 -0.982438 94.1169 
42463 2 0.137594 90.6898 
42465 2 0.607131 91.5727 
42467 2 0.0772749 92.4208 
42468 2 1.07667 92.4556 
42471 2 0.546812 93.3036 
42472 2 1.54621 93.3385 
42475 2 0.0169554 94.1517 
42476 2 1.01635 94.1865 
42477 2 2.01574 94.2214 
ITEM: TIMESTEP
210000
ITEM: NUMBER OF ATOMS
15
ITEM: BOX BOUNDS ff fm pp
-4.1000000000000000e+01 4.1000000000000000e+01
0.0000000000000000e+00 2.0000000000000000e+02
-2.5000000000000000e-01 2.5000000000000000e-01
ITEM: ATOMS id type x y 
42464 2 -0.353078 86.6537 
42466 2 -0.889477 87.4977 
42469 2 -1.42587 88.3416 
42470 2 -0.426781 88.3842 
42473 2 -1.96227 89.1856 
42474 2 -0.963179 89.2281 
42463 2 0.18332 85.8098 
42465 2 0.646016 86.6963 
42467 2 0.109618 87.5402 
42468 2 1.10871 87.5828 
42471 2 0.572313 88.4267 
42472 2 1.57141 88.4693 
42475 2 0.0359151 89.2707 
42476 2 1.03501 89.3132 
42477 2 2.0341 89.3558 
ITEM: TIMESTEP
220000
ITEM: NUMBER OF ATOMS
15
ITEM: BOX BOUNDS ff fm pp
-4.1000000000000000e+01 4.1000000000000000e+01
0.0000000000000000e+00 2.0000000000000000e+02
-2.5000000000000000e-01 2.5000000000000000e-01
ITEM: ATOMS id type x y 
42464 2 -0.300264 81.5838 
42466 2 -0.842341 82.4241 
42469 2 -1.38442 83.2644 
42470 2 -0.385633 83.3137 
42473 2 -1.92649 84.1047 
42474 2 -0.92771 84.154 
42463 2 0.241812 80.7435 
42465 2 0.69852 81.6331 
42467 2 0.156444 82.4734 
42468 2 1.15523 82.5226 
42471 2 0.613152 83.3629 
42472 2 1.61194 83.4122 
42475 2 0.0710749 84.2033 
42476 2 1.06986 84.2525 
42477 2 2.06864 84.3018 
ITEM: TIMESTEP
230000
ITEM: NUMBER OF ATOMS
15
ITEM: BOX BOUNDS ff fm pp
-4.1000000000000000e+01 4.1000000000000000e+01
0.0000000000000000e+00 2.0000000000000000e+02
-2.5000000000000000e-01 2.5000000000000000e-01
ITEM: ATOMS id type x y 
42464 2 -0.230631 76.3194 
42466 2 -0.785163 77.1515 
42469 2 -1.3397 77.9836 
42470 2 -0.341757 78.0478 
42473 2 -1.89423 78.8158 
42474 2 -0.89629 78.8799 
42463 2 0.323902 75.4872 
42465 2 0.767309 76.3835 
42467 2 0.212776 77.2157 
42468 2 1.21072 77.2798 
42471 2 0.656183 78.112 
42472 2 1.65412 78.1761 
42475 2 0.10165 78.9441 
42476 2 1.09959 79.0082 
42477 2 2.09753 79.0724 
ITEM: TIMESTEP
240000
ITEM: NUMBER OF ATOMS
15
ITEM: BOX BOUNDS ff fm pp
-4.1000000000000000e+01 4.1000000000000000e+01
0.0000000000000000e+00 2.0000000000000000e+02
-2.5000000000000000e-01 2.5000000000000000e-01
ITEM: ATOMS id type x y 
42464 2 -0.159656 70.8687 
42466 2 -0.728331 71.6913 
42469 2 -1.29701 72.5138 
42470 2 -0.300309 72.595 
42473 2 -1.86568 73.3363 
42474 2 -0.868984 73.4175 
42463 2 0.409019 70.0462 
42465 2 0.837041 70.9499 
42467 2 0.268366 71.7725 
42468 2 1.26506 71.8537 
42471 2 0.696388 72.6762 
42472 2 1.69309 72.7574 
42475 2 0.127713 73.4987 
42476 2 1.12441 73.58 
42477 2 2.12111 73.6612 
ITEM: TIMESTEP
250000
ITEM: NUMBER OF ATOMS
15
ITEM: BOX BOUNDS ff fm pp
-4.1000000000000000e+01 4.1000000000000000e+01
0.0000000000000000e+00 2.0000000000000000e+02
-2.5000000000000000e-01 2.5000000000000000e-01
ITEM: ATOMS id type x y 
42466 2 -0.625987 66.0608 
42464 2 -0.0352405 65.2539 
42469 2 -1.21673 66.8676 
42470 2 -0.222602 66.9758 
42473 2 -1.80748 67.6744 
42474 2 -0.813349 67.7826 
42463 2 0.555506 64.4471 
42465 2 0.958891 65.3621 
42467 2 0.368145 66.1689 
42468 2 1.36228 66.2771 
42471 2 0.77153 67.0839 
42472 2 1.76566 67.1921 
42475 2 0.180783 67.8908 
42476 2 1.17491 67.9989 
42477 2 2.16905 68.1071 
ITEM: TIMESTEP
260000
ITEM: NUMBER OF ATOMS
15
ITEM: BOX BOUNDS ff fm pp
-4.1000000000000000e+01 4.1000000000000000e+01
0.0000000000000000e+00 2.0000000000000000e+02
-2.5000000000000000e-01 2.5000000000000000e-01
ITEM: ATOMS id type x y 
42466 2 -0.506032 60.2716 
42469 2 -1.11352 61.0659 
42470 2 -0.121867 61.1948 
42473 2 -1.72101 61.8602 
42474 2 -0.729354 61.9891 
42463 2 0.708942 58.6829 
42464 2 0.101455 59.4772 
42465 2 1.09311 59.6062 
42467 2 0.48562 60.4005 
42468 2 1.47727 60.5294 
42471 2 0.869786 61.3237 
42472 2 1.86144 61.4527 
42475 2 0.262299 62.118 
42476 2 1.25395 62.247 
42477 2 2.2456 62.3759 
ITEM: TIMESTEP
270000
ITEM: NUMBER OF ATOMS
15
ITEM: BOX BOUNDS ff fm pp
-4.1000000000000000e+01 4.1000000000000000e+01
0.0000000000000000e+00 2.0000000000000000e+02
-2.5000000000000000e-01 2.5000000000000000e-01
ITEM: ATOMS id type x y 
42466 2 -0.362535 54.3495 
42469 2 -0.987275 55.1303 
42473 2 -1.61201 55.9111 
42474 2 -0.623423 56.0617 
42463 2 0.886943 52.7879 
42464 2 0.262204 53.5687 
42465 2 1.25079 53.7193 
42467 2 0.626055 54.5001 
42468 2 1.61465 54.6507 
42471 2 0.989906 55.4315 
42472 2 1.9785 55.5822 
42475 2 0.365167 56.2123 
42476 2 1.35376 56.363 
42477 2 2.34235 56.5136 
42470 2 0.00131593 55.2809 
ITEM: TIMESTEP
280000
ITEM: NUMBER OF ATOMS
15
ITEM: BOX BOUNDS ff fm pp
-4.1000000000000000e+01 4.1000000000000000e+01
0.0000000000000000e+00 2.0000000000000000e+02
-2.5000000000000000e-01 2.5000000000000000e-01
ITEM: ATOMS id type x y 
42466 2 -0.148532 48.2948 
42469 2 -0.805835 49.0484 
42473 2 -1.46314 49.802 
42474 2 -0.481828 49.9945 
42463 2 1.16607 46.7876 
42464 2 0.508772 47.5412 
42465 2 1.49008 47.7337 
42467 2 0.832778 48.4873 
42468 2 1.81409 48.6797 
42470 2 0.175475 49.2409 
42471 2 1.15678 49.4333 
42472 2 2.13809 49.6257 
42475 2 0.499482 50.1869 
42476 2 1.48079 50.3793 
42477 2 2.4621 50.5718 
ITEM: TIMESTEP
290000
ITEM: NUMBER OF ATOMS
15
ITEM: BOX BOUNDS ff fm pp
-4.1000000000000000e+01 4.1000000000000000e+01
0.0000000000000000e+00 2.0000000000000000e+02
-2.5000000000000000e-01 2.5000000000000000e-01
ITEM: ATOMS id type x y 
42469 2 -0.544223 42.8346 
42473 2 -1.24598 43.547 
42474 2 -0.278138 43.7985 
42463 2 1.56106 40.6974 
42464 2 0.859298 41.4098 
42465 2 1.82714 41.6614 
42466 2 0.157538 42.1222 
42467 2 1.12538 42.3737 
42468 2 2.09323 42.6253 
42470 2 0.423623 43.0861 
42471 2 1.39147 43.3377 
42472 2 2.35931 43.5892 
42475 2 0.689708 44.05 
42476 2 1.65755 44.3016 
42477 2 2.6254 44.5531 
ITEM: TIMESTEP
300000
ITEM: NUMBER OF ATOMS
15
ITEM: BOX BOUNDS ff fm pp
-4.1000000000000000e+01 4.1000000000000000e+01
0.0000000000000000e+00 2.0000000000000000e+02
-2.5000000000000000e-01 2.5000000000000000e-01
ITEM: ATOMS id type x y 
42469 2 -0.181551 36.509 
42473 2 -0.942817 37.1574 
42474 2 -0.000622862 37.4925 
42463 2 2.10225 34.5638 
42464 2 1.34098 35.2122 
42466 2 0.579714 35.8606 
42465 2 2.28317 35.5472 
42467 2 1.52191 36.1956 
42468 2 2.4641 36.5307 
42470 2 0.760643 36.844 
42471 2 1.70284 37.1791 
42475 2 0.941571 37.8275 
42472 2 2.64503 37.5142 
42476 2 1.88377 38.1626 
42477 2 2.82596 38.4977 
ITEM: TIMESTEP
310000
ITEM: NUMBER OF ATOMS
15
ITEM: BOX BOUNDS ff fm pp
-4.1000000000000000e+01 4.1000000000000000e+01
0.0000000000000000e+00 2.0000000000000000e+02
-2.5000000000000000e-01 2.5000000000000000e-01
ITEM: ATOMS id type x y 
42473 2 -0.532457 30.6305 
42463 2 2.77362 28.379 
42464 2 1.9471 28.9419 
42465 2 2.84784 29.3763 
42466 2 1.12058 29.5048 
42467 2 2.02132 29.9391 
42469 2 0.294062 30.0677 
42470 2 1.19481 30.502 
42468 2 2.92207 30.3735 
42474 2 0.368287 31.0649 
42471 2 2.09555 30.9363 
42475 2 1.26903 31.4992 
42472 2 2.9963 31.3707 
42476 2 2.16978 31.9336 
42477 2 3.07052 32.3679 
ITEM: TIMESTEP
320000
ITEM: NUMBER OF ATOMS
15
ITEM: BOX BOUNDS ff fm pp
-4.1000000000000000e+01 4.1000000000000000e+01
0.0000000000000000e+00 2.0000000000000000e+02
-2.5000000000000000e-01 2.5000000000000000e-01
ITEM: ATOMS id type x y 
42463 2 3.61669 22.2459 
42464 2 2.72357 22.6957 
42466 2 1.83045 23.1455 
42465 2 3.55967 23.2443 
42469 2 0.937333 23.5952 
42467 2 2.66655 23.6941 
42474 2 0.880309 24.5936 
42470 2 1.77343 24.1438 
42468 2 3.50265 24.2426 
42475 2 1.71641 25.1422 
42471 2 2.60953 24.6924 
42472 2 3.44562 25.241 
42476 2 2.5525 25.6908 
42477 2 3.3886 26.2393 
42473 2 0.0442125 24.045 
ITEM: TIMESTEP
330000
ITEM: NUMBER OF ATOMS
15
ITEM: BOX BOUNDS ff fm pp
-4.1000000000000000e+01 4.1000000000000000e+01
0.0000000000000000e+00 2.0000000000000000e+02
-2.5000000000000000e-01 2.5000000000000000e-01
ITEM: ATOMS id type x y 
42464 2 3.76896 16.6666 
42463 2 4.73231 16.3984 
42469 2 1.84225 17.2029 
42466 2 2.8056 16.9347 
42465 2 4.48289 17.3668 
42473 2 0.878904 17.471 
42470 2 2.55619 17.9031 
42467 2 3.51954 17.6349 
42474 2 1.59284 18.1713 
42471 2 3.27013 18.6033 
42468 2 4.23348 18.3351 
42475 2 2.30678 18.8715 
42476 2 3.02071 19.5717 
42472 2 3.98406 19.3035 
42477 2 3.73465 20.2719 
ITEM: TIMESTEP
340000
ITEM: NUMBER OF ATOMS
15
ITEM: BOX BOUNDS ff fm pp
-4.1000000000000000e+01 4.1000000000000000e+01
0.0000000000000000e+00 2.0000000000000000e+02
-2.5000000000000000e-01 2.5000000000000000e-01
ITEM: ATOMS id type x y 
42473 2 2.07021 10.9828 
42469 2 3.07015 10.9742 
42466 2 4.07009 10.9656 
42464 2 5.07003 10.957 
42463 2 6.06997 10.9484 
42474 2 2.57765 11.8445 
42470 2 3.57759 11.8359 
42467 2 4.57753 11.8273 
42465 2 5.57747 11.8187 
42468 2 5.08496 12.689 
42475 2 3.08508 12.7062 
42471 2 4.08502 12.6976 
42476 2 3.59252 13.5679 
42472 2 4.59246 13.5593 
42477 2 4.09995 14.4296 
ITEM: TIMESTEP
350000
ITEM: NUMBER OF ATOMS
15
ITEM: BOX BOUNDS ff fm pp
-4.1000000000000000e+01 4.1000000000000000e+01
0.0000000000000000e+00 2.0000000000000000e+02
-2.5000000000000000e-01 2.5000000000000000e-01
ITEM: ATOMS id type x y 
42473 2 3.58402 4.99256 
42469 2 4.5444 5.27119 
42474 2 3.82293 5.9636 
42466 2 5.50477 5.54981 
42464 2 6.46515 5.82844 
42463 2 7.42552 6.10707 
42470 2 4.7833 6.24223 
42467 2 5.74368 6.52086 
42475 2 4.06183 6.93464 
42471 2 5.02221 7.21327 
42465 2 6.70406 6.79949 
42468 2 5.98259 7.4919 
42476 2 4.30074 7.90569 
42472 2 5.26112 8.18431 
42477 2 4.53965 8.87673 
ITEM: TIMESTEP
360000
ITEM: NUMBER OF ATOMS
15
ITEM: BOX BOUNDS ff fm pp
-4.1000000000000000e+01 4.1000000000000000e+01
0.0000000000000000e+00 2.0000000000000000e+02
-2.5000000000000000e-01 2.5000000000000000e-01
ITEM: ATOMS id type x y 
42473 2 5.46309 0.474589 
42469 2 6.3308 0.971627 
42474 2 5.46651 1.47458 
42466 2 7.1985 1.46866 
42470 2 6.33422 1.97162 
42464 2 8.06621 1.9657 
42475 2 5.46993 2.47458 
42471 2 6.33763 2.97162 
42467 2 7.20192 2.46866 
42463 2 8.93391 2.46274 
42476 2 5.47335 3.47457 
42468 2 7.20534 3.46865 
42465 2 8.06962 2.9657 
42472 2 6.34105 3.97161 
42477 2 5.47677 4.47457 
ITEM: TIMESTEP
370000
ITEM: NUMBER OF ATOMS
15
ITEM: BOX BOUNDS ff fm pp
-4.1000000000000000e+01 4.1000000000000000e+01
0.0000000000000000e+00 2.0000000000000000e+02
-2.5000000000000000e-01 2.5000000000000000e-01
ITEM: ATOMS id type x y 
42466 2 9.14096 1.82584 
42464 2 10.1227 1.63557 
42463 2 11.1044 1.4453 
42473 2 7.17754 2.20637 
42469 2 8.15925 2.0161 
42474 2 7.83319 2.96143 
42470 2 8.8149 2.77116 
42467 2 9.79661 2.5809 
42465 2 10.7783 2.39063 
42471 2 9.47056 3.52622 
42468 2 10.4523 3.33596 
42475 2 8.48885 3.71649 
42476 2 9.1445 4.47155 
42472 2 10.1262 4.28128 
42477 2 9.80016 5.22661 
ITEM: TIMESTEP
380000
ITEM: NUMBER OF ATOMS
15
ITEM: BOX BOUNDS ff fm pp
-4.1000000000000000e+01 4.1000000000000000e+01
0.0000000000000000e+00 2.0000000000000000e+02
-2.5000000000000000e-01 2.5000000000000000e-01
ITEM: ATOMS id type x y 
42463 2 12.972 1.27123 
42464 2 12.1985 1.90506 
42465 2 13.1342 2.25797 
42466 2 11.4251 2.53889 
42467 2 12.3608 2.89179 
42469 2 10.6517 3.17271 
42470 2 11.5873 3.52562 
42468 2 13.2964 3.2447 
42473 2 9.87821 3.80654 
42474 2 10.8139 4.15945 
42471 2 12.523 3.87853 
42475 2 11.7495 4.51235 
42472 2 13.4586 4.23143 
42476 2 12.6852 4.86526 
42477 2 13.6208 5.21817 
ITEM: TIMESTEP
390000
ITEM: NUMBER OF ATOMS
15
ITEM: BOX BOUNDS ff fm pp
-4.1000000000000000e+01 4.1000000000000000e+01
0.0000000000000000e+00 2.0000000000000000e+02
-2.5000000000000000e-01 2.5000000000000000e-01
ITEM: ATOMS id type x y 
42463 2 14.5333 1.57614 
42464 2 13.9898 2.41554 
42465 2 14.9885 2.4665 
42466 2 13.4464 3.25493 
42467 2 14.4451 3.30589 
42468 2 15.4438 3.35685 
42469 2 12.9029 4.09432 
42470 2 13.9016 4.14529 
42471 2 14.9003 4.19625 
42472 2 15.899 4.24721 
42473 2 12.3594 4.93372 
42474 2 13.3581 4.98468 
42475 2 14.3568 5.03564 
42476 2 15.3555 5.0866 
42477 2 16.3542 5.13756 
ITEM: TIMESTEP
400000
ITEM: NUMBER OF ATOMS
15
ITEM: BOX BOUNDS ff fm pp
-4.1000000000000000e+01 4.1000000000000000e+01
0.0000000000000000e+00 2.0000000000000000e+02
-2.5000000000000000e-01 2.5000000000000000e-01
ITEM: ATOMS id type x y 
42463 2 16.0207 1.84514 
42464 2 15.6902 2.78891 
42465 2 16.6728 2.60326 
42467 2 16.3423 3.54703 
42468 2 17.3249 3.36139 
42466 2 15.3597 3.73267 
42472 2 17.977 4.11951 
42469 2 15.0291 4.67644 
42470 2 16.0117 4.4908 
42471 2 16.9944 4.30516 
42475 2 16.6638 5.24892 
42476 2 17.6464 5.06328 
42477 2 18.629 4.87764 
42473 2 14.6986 5.62021 
42474 2 15.6812 5.43457 
ITEM: TIMESTEP
410000
ITEM: NUMBER OF ATOMS
15
ITEM: BOX BOUNDS ff fm pp
-4.1000000000000000e+01 4.1000000000000000e+01
0.0000000000000000e+00 2.0000000000000000e+02
-2.5000000000000000e-01 2.5000000000000000e-01
ITEM: ATOMS id type x y 
42463 2 17.5548 2.3998 
42465 2 18.5259 2.63842 
42468 2 19.497 2.87705 
42464 2 17.8336 3.36011 
42467 2 18.8047 3.59873 
42472 2 20.468 3.11568 
42477 2 21.4391 3.3543 
42471 2 19.7758 3.83736 
42476 2 20.7469 4.07598 
42466 2 18.1125 4.32041 
42470 2 19.0836 4.55904 
42469 2 18.3914 5.28072 
42475 2 20.0547 4.79766 
42474 2 19.3625 5.51935 
42473 2 18.6702 6.24103 
ITEM: TIMESTEP
420000
ITEM: NUMBER OF ATOMS
15
ITEM: BOX BOUNDS ff fm pp
-4.1000000000000000e+01 4.1000000000000000e+01
0.0000000000000000e+00 2.0000000000000000e+02
-2.5000000000000000e-01 2.5000000000000000e-01
ITEM: ATOMS id type x y 
42477 2 23.3659 2.10404 
42468 2 21.4717 2.74577 
42472 2 22.4188 2.42491 
42463 2 19.5775 3.3875 
42465 2 20.5246 3.06664 
42471 2 22.2231 3.40557 
42476 2 23.1702 3.08471 
42464 2 20.3289 4.0473 
42467 2 21.276 3.72644 
42475 2 22.9745 4.06537 
42466 2 21.0803 4.7071 
42470 2 22.0274 4.38624 
42469 2 21.8317 5.3669 
42474 2 22.7788 5.04604 
42473 2 22.5831 6.0267 
ITEM: TIMESTEP
430000
ITEM: NUMBER OF ATOMS
15
ITEM: BOX BOUNDS ff fm pp
-4.1000000000000000e+01 4.1000000000000000e+01
0.0000000000000000e+00 2.0000000000000000e+02
-2.5000000000000000e-01 2.5000000000000000e-01
ITEM: ATOMS id type x y 
42477 2 24.8608 1.22397 
42472 2 24.1857 1.96163 
42476 2 25.1621 2.17751 
42468 2 23.5105 2.6993 
42471 2 24.4869 2.91517 
42465 2 22.8354 3.43697 
42475 2 25.4633 3.13105 
42463 2 22.1603 4.17463 
42467 2 23.8118 3.65284 
42470 2 24.7882 3.86872 
42474 2 25.7646 4.08459 
42464 2 23.1367 4.39051 
42466 2 24.1131 4.60638 
42469 2 25.0895 4.82226 
42473 2 26.0659 5.03813 
ITEM: TIMESTEP
440000
ITEM: NUMBER OF ATOMS
15
ITEM: BOX BOUNDS ff fm pp
-4.1000000000000000e+01 4.1000000000000000e+01
0.0000000000000000e+00 2.0000000000000000e+02
-2.5000000000000000e-01 2.5000000000000000e-01
ITEM: ATOMS id type x y 
42477 2 28.2515 0.985084 
42472 2 27.4095 1.52465 
42468 2 26.5676 2.06422 
42476 2 28.2978 1.98401 
42465 2 25.7257 2.60379 
42471 2 27.4559 2.52358 
42475 2 28.3441 2.98294 
42463 2 24.8838 3.14335 
42467 2 26.6139 3.06315 
42470 2 27.5022 3.52251 
42464 2 25.772 3.60271 
42466 2 26.6602 4.06207 
42474 2 28.3904 3.98187 
42469 2 27.5485 4.52143 
42473 2 28.4367 4.98079 
ITEM: TIMESTEP
450000
ITEM: NUMBER OF ATOMS
15
ITEM: BOX BOUNDS ff fm pp
-4.1000000000000000e+01 4.1000000000000000e+01
0.0000000000000000e+00 2.0000000000000000e+02
-2.5000000000000000e-01 2.5000000000000000e-01
ITEM: ATOMS id type x y 
42463 2 27.8691 2.16103 
42465 2 28.869 2.15056 
42468 2 29.8689 2.14009 
42472 2 30.8688 2.12962 
42477 2 31.8688 2.11915 
42471 2 30.3779 3.00083 
42476 2 31.3778 2.99036 
42464 2 28.3781 3.02177 
42467 2 29.378 3.0113 
42466 2 28.8871 3.8825 
42470 2 29.887 3.87203 
42475 2 30.8869 3.86156 
42469 2 29.3961 4.74324 
42474 2 30.396 4.73277 
42473 2 29.9051 5.60398 
ITEM: TIMESTEP
460000
ITEM: NUMBER OF ATOMS
15
ITEM: BOX BOUNDS ff fm pp
-4.1000000000000000e+01 4.1000000000000000e+01
0.0000000000000000e+00 2.0000000000000000e+02
-2.5000000000000000e-01 2.5000000000000000e-01
ITEM: ATOMS id type x y 
42463 2 31.2125 1.27604 
42464 2 31.1961 2.27588 
42465 2 32.0702 1.79017 
42468 2 32.9279 2.3043 
42467 2 32.0537 2.79001 
42472 2 33.7856 2.81843 
42466 2 31.1796 3.27573 
42471 2 32.9114 3.30414 
42477 2 34.6432 3.33256 
42470 2 32.0373 3.78986 
42476 2 33.7691 3.81827 
42469 2 31.1632 4.27557 
42474 2 32.0209 4.7897 
42475 2 32.895 4.30399 
42473 2 31.1468 5.27541 
ITEM: TIMESTEP
470000
ITEM: NUMBER OF ATOMS
15
ITEM: BOX BOUNDS ff fm pp
-4.1000000000000000e+01 4.1000000000000000e+01
0.0000000000000000e+00 2.0000000000000000e+02
-2.5000000000000000e-01 2.5000000000000000e-01
ITEM: ATOMS id type x y 
42463 2 33.71 1.27804 
42464 2 33.4093 2.23175 
42465 2 34.3856 2.01524 
42467 2 34.085 2.96895 
42468 2 35.0612 2.75245 
42466 2 33.1087 3.18546 
42472 2 35.7369 3.48965 
42469 2 32.808 4.13917 
42470 2 33.7843 3.92267 
42471 2 34.7606 3.70616 
42477 2 36.4125 4.22686 
42475 2 34.46 4.65987 
42476 2 35.4362 4.44337 
42473 2 32.5074 5.09289 
42474 2 33.4837 4.87638 
ITEM: TIMESTEP
480000
ITEM: NUMBER OF ATOMS
15
ITEM: BOX BOUNDS ff fm pp
-4.1000000000000000e+01 4.1000000000000000e+01
0.0000000000000000e+00 2.0000000000000000e+02
-2.5000000000000000e-01 2.5000000000000000e-01
ITEM: ATOMS id type x y 
42463 2 35.2514 1.57232 
42465 2 35.8133 2.39948 
42464 2 34.816 2.47252 
42466 2 34.3805 3.37273 
42467 2 35.3779 3.29969 
42468 2 36.3752 3.22664 
42470 2 34.9425 4.1999 
42471 2 35.9398 4.12685 
42472 2 36.9371 4.05381 
42469 2 33.9451 4.27294 
42473 2 33.5097 5.17315 
42474 2 34.5071 5.10011 
42475 2 35.5044 5.02706 
42476 2 36.5017 4.95402 
42477 2 37.499 4.88097 
ITEM: TIMESTEP
490000
ITEM: NUMBER OF ATOMS
15
ITEM: BOX BOUNDS ff fm pp
-4.1000000000000000e+01 4.1000000000000000e+01
0.0000000000000000e+00 2.0000000000000000e+02
-2.5000000000000000e-01 2.5000000000000000e-01
ITEM: ATOMS id type x y 
42463 2 35.8642 1.91069 
42464 2 35.4257 2.80942 
42465 2 36.4233 2.73975 
42468 2 36.9824 3.56882 