ITEM: TIMESTEP
0
ITEM: NUMBER OF ATOMS
25
ITEM: BOX BOUNDS ff fm pp
-4.1000000000000000e+01 4.1000000000000000e+01
0.0000000000000000e+00 2.0000000000000000e+02
-2.5000000000000000e-01 2.5000000000000000e-01
ITEM: ATOMS id x y 
42467 -2 140 
42466 -1 140 
42472 -2 140.866 
42471 -1 140.866 
42477 -2 141.732 
42476 -1 141.732 
42482 -2 142.598 
42481 -1 142.598 
42487 -2 143.464 
42486 -1 143.464 
42465 0 140 
42464 1 140 
42463 2 140 
42470 0 140.866 
42469 1 140.866 
42468 2 140.866 
42475 0 141.732 
42474 1 141.732 
42473 2 141.732 
42480 0 142.598 
42479 1 142.598 
42478 2 142.598 
42485 0 143.464 
42484 1 143.464 
42483 2 143.464 
ITEM: TIMESTEP
1000
ITEM: NUMBER OF ATOMS
25
ITEM: BOX BOUNDS ff fm pp
-4.1000000000000000e+01 4.1000000000000000e+01
0.0000000000000000e+00 2.0000000000000000e+02
-2.5000000000000000e-01 2.5000000000000000e-01
ITEM: ATOMS id x y 
42467 -2 139.999 
42466 -1 139.999 
42472 -2 140.865 
42471 -1 140.865 
42477 -2 141.731 
42476 -1 141.731 
42482 -2 142.597 
42481 -1 142.597 
42487 -2 143.463 
42486 -1 143.463 
42465 2.63064e-19 139.999 
42464 1 139.999 
42463 2 139.999 
42470 5.49913e-20 140.865 
42469 1 140.865 
42468 2 140.865 
42475 -1.53081e-19 141.731 
42474 1 141.731 
42473 2 141.731 
42480 -3.61153e-19 142.597 
42479 1 142.597 
42478 2 142.597 
42485 -5.69225e-19 143.463 
42484 1 143.463 
42483 2 143.463 
ITEM: TIMESTEP
2000
ITEM: NUMBER OF ATOMS
25
ITEM: BOX BOUNDS ff fm pp
-4.1000000000000000e+01 4.1000000000000000e+01
0.0000000000000000e+00 2.0000000000000000e+02
-2.5000000000000000e-01 2.5000000000000000e-01
ITEM: ATOMS id x y 
42467 -2 139.995 
42466 -1 139.995 
42472 -2 140.861 
42471 -1 140.861 
42477 -2 141.727 
42476 -1 141.727 
42482 -2 142.593 
42481 -1 142.593 
42487 -2 143.459 
42486 -1 143.459 
42465 3.94044e-19 139.995 
42464 1 139.995 
42463 2 139.995 
42470 -1.0914e-19 140.861 
42469 1 140.861 
42468 2 140.861 
42475 -6.12323e-19 141.727 
42474 1 141.727 
42473 2 141.727 
42480 -1.11551e-18 142.593 
42479 1 142.593 
42478 2 142.593 
42485 -1.61869e-18 143.459 
42484 1 143.459 
42483 2 143.459 
ITEM: TIMESTEP
3000
ITEM: NUMBER OF ATOMS
25
ITEM: BOX BOUNDS ff fm pp
-4.1000000000000000e+01 4.1000000000000000e+01
0.0000000000000000e+00 2.0000000000000000e+02
-2.5000000000000000e-01 2.5000000000000000e-01
ITEM: ATOMS id x y 
42467 -2 139.989 
42466 -1 139.989 
42472 -2 140.855 
42471 -1 140.855 
42477 -2 141.721 
42476 -1 141.721 
42482 -2 142.587 
42481 -1 142.587 
42487 -2 143.453 
42486 -1 143.453 
42465 3.36575e-19 139.989 
42464 1 139.989 
42463 2 139.989 
42470 -5.20576e-19 140.855 
42469 1 140.855 
42468 2 140.855 
42475 -1.37773e-18 141.721 
42474 1 141.721 
42473 2 141.721 
42480 -2.23488e-18 142.587 
42479 1 142.587 
42478 2 142.587 
42485 -3.09203e-18 143.453 
42484 1 143.453 
42483 2 143.453 
ITEM: TIMESTEP
4000
ITEM: NUMBER OF ATOMS
25
ITEM: BOX BOUNDS ff fm pp
-4.1000000000000000e+01 4.1000000000000000e+01
0.0000000000000000e+00 2.0000000000000000e+02
-2.5000000000000000e-01 2.5000000000000000e-01
ITEM: ATOMS id x y 
42467 -2 139.98 
42466 -1 139.98 
42472 -2 140.846 
42471 -1 140.846 
42477 -2 141.712 
42476 -1 141.712 
42482 -2 142.578 
42481 -1 142.578 
42487 -2 143.444 
42486 -1 143.444 
42465 -4.67203e-20 139.98 
42464 1 139.98 
42463 2 139.98 
42470 -1.24801e-18 140.846 
42469 1 140.846 
42468 2 140.846 
42475 -2.44929e-18 141.712 
42474 1 141.712 
42473 2 141.712 
42480 -3.65058e-18 142.578 
42479 1 142.578 
42478 2 142.578 
42485 -4.85187e-18 143.444 
42484 1 143.444 
42483 2 143.444 
ITEM: TIMESTEP
5000
ITEM: NUMBER OF ATOMS
25
ITEM: BOX BOUNDS ff fm pp
-4.1000000000000000e+01 4.1000000000000000e+01
0.0000000000000000e+00 2.0000000000000000e+02
-2.5000000000000000e-01 2.5000000000000000e-01
ITEM: ATOMS id x y 
42467 -2 139.969 
42466 -1 139.969 
42472 -2 140.835 
42471 -1 140.835 
42477 -2 141.701 
42476 -1 141.701 
42482 -2 142.567 
42481 -1 142.567 
42487 -2 143.433 
42486 -1 143.433 
42465 -7.77908e-19 139.969 
42464 1 139.969 
42463 2 139.969 
42470 -2.30246e-18 140.835 
42469 1 140.835 
42468 2 140.835 
42475 -3.82702e-18 141.701 
42474 1 141.701 
42473 2 141.701 
42480 -5.35158e-18 142.567 
42479 1 142.567 
42478 2 142.567 
42485 -6.87613e-18 143.433 
42484 1 143.433 
42483 2 143.433 
ITEM: TIMESTEP
6000
ITEM: NUMBER OF ATOMS
25
ITEM: BOX BOUNDS ff fm pp
-4.1000000000000000e+01 4.1000000000000000e+01
0.0000000000000000e+00 2.0000000000000000e+02
-2.5000000000000000e-01 2.5000000000000000e-01
ITEM: ATOMS id x y 
42467 -2 139.955 
42466 -1 139.955 
42472 -2 140.821 
42471 -1 140.821 
42477 -2 141.687 
42476 -1 141.687 
42482 -2 142.553 
42481 -1 142.553 
42487 -2 143.419 
42486 -1 143.419 
42465 -1.85445e-18 139.955 
42464 1 139.955 
42463 2 139.955 
42470 -3.68268e-18 140.821 
42469 1 140.821 
42468 2 140.821 
42475 -5.51091e-18 141.687 
42474 1 141.687 
42473 2 141.687 
42480 -7.33914e-18 142.553 
42479 1 142.553 
42478 2 142.553 
42485 -9.16737e-18 143.419 
42484 1 143.419 
42483 2 143.419 
ITEM: TIMESTEP
7000
ITEM: NUMBER OF ATOMS
25
ITEM: BOX BOUNDS ff fm pp
-4.1000000000000000e+01 4.1000000000000000e+01
0.0000000000000000e+00 2.0000000000000000e+02
-2.5000000000000000e-01 2.5000000000000000e-01
ITEM: ATOMS id x y 
42467 -2 139.939 
42466 -1 139.939 
42472 -2 140.805 
42471 -1 140.805 
42477 -2 141.671 
42476 -1 141.671 
42482 -2 142.537 
42481 -1 142.537 
42487 -2 143.403 
42486 -1 143.403 
42465 -3.27399e-18 139.939 
42464 1 139.939 
42463 2 139.939 
42470 -5.38748e-18 140.805 
42469 1 140.805 
42468 2 140.805 
42475 -7.50096e-18 141.671 
42474 1 141.671 
42473 2 141.671 
42480 -9.61445e-18 142.537 
42479 1 142.537 
42478 2 142.537 
42485 -1.17279e-17 143.403 
42484 1 143.403 
42483 2 143.403 
ITEM: TIMESTEP
8000
ITEM: NUMBER OF ATOMS
25
ITEM: BOX BOUNDS ff fm pp
-4.1000000000000000e+01 4.1000000000000000e+01
0.0000000000000000e+00 2.0000000000000000e+02
-2.5000000000000000e-01 2.5000000000000000e-01
ITEM: ATOMS id x y 
42467 -2 139.92 
42466 -1 139.92 
42472 -2 140.786 
42471 -1 140.786 
42477 -2 141.652 
42476 -1 141.652 
42482 -2 142.518 
42481 -1 142.518 
42487 -2 143.384 
42486 -1 143.384 
42465 -5.03426e-18 139.92 
42464 1 139.92 
42463 2 139.92 
42470 -7.41572e-18 140.786 
42469 1 140.786 
42468 2 140.786 
42475 -9.79717e-18 141.652 
42474 1 141.652 
42473 2 141.652 
42480 -1.21786e-17 142.518 
42479 1 142.518 
42478 2 142.518 
42485 -1.45601e-17 143.384 
42484 1 143.384 
42483 2 143.384 
ITEM: TIMESTEP
9000
ITEM: NUMBER OF ATOMS
25
ITEM: BOX BOUNDS ff fm pp
-4.1000000000000000e+01 4.1000000000000000e+01
0.0000000000000000e+00 2.0000000000000000e+02
-2.5000000000000000e-01 2.5000000000000000e-01
ITEM: ATOMS id x y 
42467 -2 139.899 
42466 -1 139.899 
42465 -7.13318e-18 139.899 
42472 -2 140.765 
42471 -1 140.765 
42470 -9.76636e-18 140.765 
42477 -2 141.631 
42476 -1 141.631 
42475 -1.23995e-17 141.631 
42482 -2 142.497 
42481 -1 142.497 
42480 -1.50327e-17 142.497 
42487 -2 143.363 
42486 -1 143.363 
42485 -1.76659e-17 143.363 
42464 1 139.899 
42463 2 139.899 
42469 1 140.765 
42468 2 140.765 
42474 1 141.631 
42473 2 141.631 
42479 1 142.497 
42478 2 142.497 
42484 1 143.363 
42483 2 143.363 
ITEM: TIMESTEP
10000
ITEM: NUMBER OF ATOMS
25
ITEM: BOX BOUNDS ff fm pp
-4.1000000000000000e+01 4.1000000000000000e+01
0.0000000000000000e+00 2.0000000000000000e+02
-2.5000000000000000e-01 2.5000000000000000e-01
ITEM: ATOMS id x y 
42467 -2 139.875 
42466 -1 139.875 
42465 -9.56853e-18 139.875 
42472 -2 140.741 
42471 -1 140.741 
42470 -1.24383e-17 140.741 
42477 -2 141.607 
42476 -1 141.607 
42475 -1.53081e-17 141.607 
42482 -2 142.473 
42481 -1 142.473 
42480 -1.81779e-17 142.473 
42487 -2 143.339 
42486 -1 143.339 
42485 -2.10476e-17 143.339 
42464 1 139.875 
42463 2 139.875 
42469 1 140.741 
42468 2 140.741 
42474 1 141.607 
42473 2 141.607 
42479 1 142.473 
42478 2 142.473 
42484 1 143.339 
42483 2 143.339 
ITEM: TIMESTEP
11000
ITEM: NUMBER OF ATOMS
25
ITEM: BOX BOUNDS ff fm pp
-4.1000000000000000e+01 4.1000000000000000e+01
0.0000000000000000e+00 2.0000000000000000e+02
-2.5000000000000000e-01 2.5000000000000000e-01
ITEM: ATOMS id x y 
42467 -2 139.849 
42466 -1 139.849 
42465 -1.23387e-17 139.849 
42472 -2 140.715 
42471 -1 140.715 
42470 -1.54308e-17 140.715 
42477 -2 141.581 
42476 -1 141.581 
42475 -1.85228e-17 141.581 
42482 -2 142.447 
42481 -1 142.447 
42480 -2.16148e-17 142.447 
42487 -2 143.313 
42486 -1 143.313 
42485 -2.47068e-17 143.313 
42464 1 139.849 
42463 2 139.849 
42469 1 140.715 
42468 2 140.715 
42474 1 141.581 
42473 2 141.581 
42479 1 142.447 
42478 2 142.447 
42484 1 143.313 
42483 2 143.313 
ITEM: TIMESTEP
12000
ITEM: NUMBER OF ATOMS
25
ITEM: BOX BOUNDS ff fm pp
-4.1000000000000000e+01 4.1000000000000000e+01
0.0000000000000000e+00 2.0000000000000000e+02
-2.5000000000000000e-01 2.5000000000000000e-01
ITEM: ATOMS id x y 
42467 -2 139.82 
42466 -1 139.82 
42465 -1.5442e-17 139.82 
42472 -2 140.686 
42471 -1 140.686 
42470 -1.87428e-17 140.686 
42477 -2 141.552 
42476 -1 141.552 
42475 -2.20436e-17 141.552 
42482 -2 142.418 
42481 -1 142.418 
42480 -2.53444e-17 142.418 
42487 -2 143.284 
42486 -1 143.284 
42485 -2.86453e-17 143.284 
42464 1 139.82 
42463 2 139.82 
42469 1 140.686 
42468 2 140.686 
42474 1 141.552 
42473 2 141.552 
42479 1 142.418 
42478 2 142.418 
42484 1 143.284 
42483 2 143.284 
ITEM: TIMESTEP
13000
ITEM: NUMBER OF ATOMS
25
ITEM: BOX BOUNDS ff fm pp
-4.1000000000000000e+01 4.1000000000000000e+01
0.0000000000000000e+00 2.0000000000000000e+02
-2.5000000000000000e-01 2.5000000000000000e-01
ITEM: ATOMS id x y 
42467 -2 139.789 
42466 -1 139.789 
42465 -1.88768e-17 139.789 
42472 -2 140.655 
42471 -1 140.655 
42470 -2.23737e-17 140.655 
42477 -2 141.521 
42476 -1 141.521 
42475 -2.58707e-17 141.521 
42482 -2 142.387 
42481 -1 142.387 
42480 -2.93676e-17 142.387 
42487 -2 143.253 
42486 -1 143.253 
42485 -3.28645e-17 143.253 
42464 1 139.789 
42463 2 139.789 
42469 1 140.655 
42468 2 140.655 
42474 1 141.521 
42473 2 141.521 
42479 1 142.387 
42478 2 142.387 
42484 1 143.253 
42483 2 143.253 
ITEM: TIMESTEP
14000
ITEM: NUMBER OF ATOMS
25
ITEM: BOX BOUNDS ff fm pp
-4.1000000000000000e+01 4.1000000000000000e+01
0.0000000000000000e+00 2.0000000000000000e+02
-2.5000000000000000e-01 2.5000000000000000e-01
ITEM: ATOMS id x y 
42467 -2 139.755 
42466 -1 139.755 
42465 -2.26415e-17 139.755 
42472 -2 140.621 
42471 -1 140.621 
42470 -2.63227e-17 140.621 
42477 -2 141.487 
42476 -1 141.487 
42475 -3.00038e-17 141.487 
42482 -2 142.353 
42481 -1 142.353 
42480 -3.3685e-17 142.353 
42487 -2 143.219 
42486 -1 143.219 
42485 -3.73661e-17 143.219 
42464 1 139.755 
42463 2 139.755 
42469 1 140.621 
42468 2 140.621 
42474 1 141.487 
42473 2 141.487 
42479 1 142.353 
42478 2 142.353 
42484 1 143.219 
42483 2 143.219 
ITEM: TIMESTEP
15000
ITEM: NUMBER OF ATOMS
25
ITEM: BOX BOUNDS ff fm pp
-4.1000000000000000e+01 4.1000000000000000e+01
0.0000000000000000e+00 2.0000000000000000e+02
-2.5000000000000000e-01 2.5000000000000000e-01
ITEM: ATOMS id x y 
42467 -2 139.719 
42466 -1 139.719 
42465 -2.67348e-17 139.719 
42472 -2 140.585 
42471 -1 140.585 
42470 -3.0589e-17 140.585 
42477 -2 141.451 
42476 -1 141.451 
42475 -3.44432e-17 141.451 
42482 -2 142.317 
42481 -1 142.317 
42480 -3.82974e-17 142.317 
42487 -2 143.183 
42486 -1 143.183 
42485 -4.21516e-17 143.183 
42464 1 139.719 
42463 2 139.719 
42469 1 140.585 
42468 2 140.585 
42474 1 141.451 
42473 2 141.451 
42479 1 142.317 
42478 2 142.317 
42484 1 143.183 
42483 2 143.183 
ITEM: TIMESTEP
16000
ITEM: NUMBER OF ATOMS
25
ITEM: BOX BOUNDS ff fm pp
-4.1000000000000000e+01 4.1000000000000000e+01
0.0000000000000000e+00 2.0000000000000000e+02
-2.5000000000000000e-01 2.5000000000000000e-01
ITEM: ATOMS id x y 
42467 -2 139.68 
42466 -1 139.68 
42465 -3.11551e-17 139.68 
42472 -2 140.546 
42471 -1 140.546 
42470 -3.51719e-17 140.546 
42477 -2 141.412 
42476 -1 141.412 
42475 -3.91887e-17 141.412 
42482 -2 142.278 
42481 -1 142.278 
42480 -4.32055e-17 142.278 
42487 -2 143.144 
42486 -1 143.144 
42485 -4.72222e-17 143.144 
42464 1 139.68 
42463 2 139.68 
42469 1 140.546 
42468 2 140.546 
42474 1 141.412 
42473 2 141.412 
42479 1 142.278 
42478 2 142.278 
42484 1 143.144 
42483 2 143.144 
ITEM: TIMESTEP
17000
ITEM: NUMBER OF ATOMS
25
ITEM: BOX BOUNDS ff fm pp
-4.1000000000000000e+01 4.1000000000000000e+01
0.0000000000000000e+00 2.0000000000000000e+02
-2.5000000000000000e-01 2.5000000000000000e-01
ITEM: ATOMS id x y 
42467 -2 139.639 
42466 -1 139.639 
42465 -3.59014e-17 139.639 
42472 -2 140.505 
42471 -1 140.505 
42470 -4.00709e-17 140.505 
42477 -2 141.371 
42476 -1 141.371 
42475 -4.42404e-17 141.371 
42482 -2 142.237 
42481 -1 142.237 
42480 -4.84099e-17 142.237 
42487 -2 143.103 
42486 -1 143.103 
42485 -5.25793e-17 143.103 
42464 1 139.639 
42463 2 139.639 
42469 1 140.505 
42468 2 140.505 
42474 1 141.371 
42473 2 141.371 
42479 1 142.237 
42478 2 142.237 
42484 1 143.103 
42483 2 143.103 
ITEM: TIMESTEP
18000
ITEM: NUMBER OF ATOMS
25
ITEM: BOX BOUNDS ff fm pp
-4.1000000000000000e+01 4.1000000000000000e+01
0.0000000000000000e+00 2.0000000000000000e+02
-2.5000000000000000e-01 2.5000000000000000e-01
ITEM: ATOMS id x y 
42467 -2 139.595 
42466 -1 139.595 
42465 -4.09723e-17 139.595 
42472 -2 140.461 
42471 -1 140.461 
42470 -4.52853e-17 140.461 
42477 -2 141.327 
42476 -1 141.327 
42475 -4.95982e-17 141.327 
42482 -2 142.193 
42481 -1 142.193 
42480 -5.39111e-17 142.193 
42487 -2 143.059 
42486 -1 143.059 
42485 -5.82241e-17 143.059 
42464 1 139.595 
42463 2 139.595 
42469 1 140.461 
42468 2 140.461 
42474 1 141.327 
42473 2 141.327 
42479 1 142.193 
42478 2 142.193 
42484 1 143.059 
42483 2 143.059 
ITEM: TIMESTEP
19000
ITEM: NUMBER OF ATOMS
25
ITEM: BOX BOUNDS ff fm pp
-4.1000000000000000e+01 4.1000000000000000e+01
0.0000000000000000e+00 2.0000000000000000e+02
-2.5000000000000000e-01 2.5000000000000000e-01
ITEM: ATOMS id x y 
42467 -2 139.549 
42466 -1 139.549 
42465 -4.63668e-17 139.549 
42472 -2 140.415 
42471 -1 140.415 
42470 -5.08145e-17 140.415 
42477 -2 141.281 
42476 -1 141.281 
42475 -5.52622e-17 141.281 
42482 -2 142.147 
42481 -1 142.147 
42480 -5.97099e-17 142.147 
42487 -2 143.013 
42486 -1 143.013 
42485 -6.41576e-17 143.013 
42464 1 139.549 
42463 2 139.549 
42469 1 140.415 
42468 2 140.415 
42474 1 141.281 
42473 2 141.281 
42479 1 142.147 
42478 2 142.147 
42484 1 143.013 
42483 2 143.013 
ITEM: TIMESTEP
20000
ITEM: NUMBER OF ATOMS
25
ITEM: BOX BOUNDS ff fm pp
-4.1000000000000000e+01 4.1000000000000000e+01
0.0000000000000000e+00 2.0000000000000000e+02
-2.5000000000000000e-01 2.5000000000000000e-01
ITEM: ATOMS id x y 
42467 -2 139.5 
42466 -1 139.5 
42465 -5.1765e-17 139.5 
42472 -2 140.366 
42471 -1 140.366 
42470 -5.64987e-17 140.366 
42477 -2 141.232 
42476 -1 141.232 
42475 -6.12323e-17 141.232 
42482 -2 142.098 
42481 -1 142.098 
42480 -6.5966e-17 142.098 
42487 -2 142.964 
42486 -1 142.964 
42485 -7.06997e-17 142.964 
42464 1 139.5 
42463 2 139.5 
42469 1 140.366 
42468 2 140.366 
42474 1 141.232 
42473 2 141.232 
42479 1 142.098 
42478 2 142.098 
42484 1 142.964 
42483 2 142.964 
ITEM: TIMESTEP
21000
ITEM: NUMBER OF ATOMS
25
ITEM: BOX BOUNDS ff fm pp
-4.1000000000000000e+01 4.1000000000000000e+01
0.0000000000000000e+00 2.0000000000000000e+02
-2.5000000000000000e-01 2.5000000000000000e-01
ITEM: ATOMS id x y 
42467 -2 139.449 
42466 -1 139.449 
42465 -5.74258e-17 139.449 
42472 -2 140.315 
42471 -1 140.315 
42470 -6.24672e-17 140.315 
42477 -2 141.181 
42476 -1 141.181 
42475 -6.75087e-17 141.181 
42482 -2 142.047 
42481 -1 142.047 
42480 -7.25501e-17 142.047 
42487 -2 142.913 
42486 -1 142.913 
42485 -7.75915e-17 142.913 
42464 1 139.449 
42463 2 139.449 
42469 1 140.315 
42468 2 140.315 
42474 1 141.181 
42473 2 141.181 
42479 1 142.047 
42478 2 142.047 
42484 1 142.913 
42483 2 142.913 
ITEM: TIMESTEP
22000
ITEM: NUMBER OF ATOMS
25
ITEM: BOX BOUNDS ff fm pp
-4.1000000000000000e+01 4.1000000000000000e+01
0.0000000000000000e+00 2.0000000000000000e+02
-2.5000000000000000e-01 2.5000000000000000e-01
ITEM: ATOMS id x y 
42467 -2 139.395 
42466 -1 139.395 
42465 -6.34301e-17 139.395 
42472 -2 140.261 
42471 -1 140.261 
42470 -6.87606e-17 140.261 
42477 -2 141.127 
42476 -1 141.127 
42475 -7.40911e-17 141.127 
42482 -2 141.993 
42481 -1 141.993 
42480 -7.94216e-17 141.993 
42487 -2 142.859 
42486 -1 142.859 
42485 -8.47521e-17 142.859 
42464 1 139.395 
42463 2 139.395 
42469 1 140.261 
42468 2 140.261 
42474 1 141.127 
42473 2 141.127 
42479 1 141.993 
42478 2 141.993 
42484 1 142.859 
42483 2 142.859 
ITEM: TIMESTEP
23000
ITEM: NUMBER OF ATOMS
25
ITEM: BOX BOUNDS ff fm pp
-4.1000000000000000e+01 4.1000000000000000e+01
0.0000000000000000e+00 2.0000000000000000e+02
-2.5000000000000000e-01 2.5000000000000000e-01
ITEM: ATOMS id x y 
42467 -2 139.339 
42466 -1 139.339 
42465 -6.97757e-17 139.339 
42472 -2 140.205 
42471 -1 140.205 
42470 -7.53777e-17 140.205 
42477 -2 141.071 
42476 -1 141.071 
42475 -8.09798e-17 141.071 
42482 -2 141.937 
42481 -1 141.937 
42480 -8.65818e-17 141.937 
42487 -2 142.803 
42486 -1 142.803 
42485 -9.21839e-17 142.803 
42464 1 139.339 
42463 2 139.339 
42469 1 140.205 
42468 2 140.205 
42474 1 141.071 
42473 2 141.071 
42479 1 141.937 
42478 2 141.937 
42484 1 142.803 
42483 2 142.803 
ITEM: TIMESTEP
24000
ITEM: NUMBER OF ATOMS
25
ITEM: BOX BOUNDS ff fm pp
-4.1000000000000000e+01 4.1000000000000000e+01
0.0000000000000000e+00 2.0000000000000000e+02
-2.5000000000000000e-01 2.5000000000000000e-01
ITEM: ATOMS id x y 
42467 -2 139.28 
42466 -1 139.28 
42465 -7.64603e-17 139.28 
42472 -2 140.146 
42471 -1 140.146 
42470 -8.23174e-17 140.146 
42477 -2 141.012 
42476 -1 141.012 
42475 -8.81746e-17 141.012 
42482 -2 141.878 
42481 -1 141.878 
42480 -9.40317e-17 141.878 
42487 -2 142.744 
42486 -1 142.744 
42485 -9.98888e-17 142.744 
42464 1 139.28 
42463 2 139.28 
42469 1 140.146 
42468 2 140.146 
42474 1 141.012 
42473 2 141.012 
42479 1 141.878 
42478 2 141.878 
42484 1 142.744 
42483 2 142.744 
ITEM: TIMESTEP
25000
ITEM: NUMBER OF ATOMS
25
ITEM: BOX BOUNDS ff fm pp
-4.1000000000000000e+01 4.1000000000000000e+01
0.0000000000000000e+00 2.0000000000000000e+02
-2.5000000000000000e-01 2.5000000000000000e-01
ITEM: ATOMS id x y 
42467 -2 139.219 
42466 -1 139.219 
42465 -8.3482e-17 139.219 
42472 -2 140.085 
42471 -1 140.085 
42470 -8.95788e-17 140.085 
42477 -2 140.951 
42476 -1 140.951 
42475 -9.56755e-17 140.951 
42482 -2 141.817 
42481 -1 141.817 
42480 -1.01772e-16 141.817 
42487 -2 142.683 
42486 -1 142.683 
42485 -1.07869e-16 142.683 
42464 1 139.219 
42463 2 139.219 
42469 1 140.085 
42468 2 140.085 
42474 1 140.951 
42473 2 140.951 
42479 1 141.817 
42478 2 141.817 
42484 1 142.683 
42483 2 142.683 
ITEM: TIMESTEP
26000
ITEM: NUMBER OF ATOMS
25
ITEM: BOX BOUNDS ff fm pp
-4.1000000000000000e+01 4.1000000000000000e+01
0.0000000000000000e+00 2.0000000000000000e+02
-2.5000000000000000e-01 2.5000000000000000e-01
ITEM: ATOMS id x y 
42467 -2 139.155 
42466 -1 139.155 
42465 -9.0839e-17 139.155 
42472 -2 140.021 
42471 -1 140.021 
42470 -9.71608e-17 140.021 
42477 -2 140.887 
42476 -1 140.887 
42475 -1.03483e-16 140.887 
42482 -2 141.753 
42481 -1 141.753 
42480 -1.09805e-16 141.753 
42487 -2 142.619 
42486 -1 142.619 
42485 -1.16126e-16 142.619 
42464 1 139.155 
42463 2 139.155 
42469 1 140.021 
42468 2 140.021 
42474 1 140.887 
42473 2 140.887 
42479 1 141.753 
42478 2 141.753 
42484 1 142.619 
42483 2 142.619 
ITEM: TIMESTEP
27000
ITEM: NUMBER OF ATOMS
25
ITEM: BOX BOUNDS ff fm pp
-4.1000000000000000e+01 4.1000000000000000e+01
0.0000000000000000e+00 2.0000000000000000e+02
-2.5000000000000000e-01 2.5000000000000000e-01
ITEM: ATOMS id x y 
42467 -2 139.089 
42466 -1 139.089 
42465 -9.85255e-17 139.089 
42472 -2 139.955 
42471 -1 139.955 
42470 -1.05061e-16 139.955 
42477 -2 140.821 
42476 -1 140.821 
42475 -1.11596e-16 140.821 
42482 -2 141.687 
42481 -1 141.687 
42480 -1.18131e-16 141.687 
42487 -2 142.553 
42486 -1 142.553 
42485 -1.24666e-16 142.553 
42464 1 139.089 
42463 2 139.089 
42469 1 139.955 
42468 2 139.955 
42474 1 140.821 
42473 2 140.821 
42479 1 141.687 
42478 2 141.687 
42484 1 142.553 
42483 2 142.553 
ITEM: TIMESTEP
28000
ITEM: NUMBER OF ATOMS
25
ITEM: BOX BOUNDS ff fm pp
-4.1000000000000000e+01 4.1000000000000000e+01
0.0000000000000000e+00 2.0000000000000000e+02
-2.5000000000000000e-01 2.5000000000000000e-01
ITEM: ATOMS id x y 
42467 -2 139.02 
42466 -1 139.02 
42465 -1.05901e-16 139.02 
42472 -2 139.886 
42471 -1 139.886 
42470 -1.12958e-16 139.886 
42477 -2 140.752 
42476 -1 140.752 
42475 -1.20015e-16 140.752 
42482 -2 141.618 
42481 -1 141.618 
42480 -1.27073e-16 141.618 
42487 -2 142.484 
42486 -1 142.484 
42485 -1.3413e-16 142.484 
42464 1 139.02 
42463 2 139.02 
42469 1 139.886 
42468 2 139.886 
42474 1 140.752 
42473 2 140.752 
42479 1 141.618 
42478 2 141.618 
42484 1 142.484 
42483 2 142.484 
ITEM: TIMESTEP
29000
ITEM: NUMBER OF ATOMS
25
ITEM: BOX BOUNDS ff fm pp
-4.1000000000000000e+01 4.1000000000000000e+01
0.0000000000000000e+00 2.0000000000000000e+02
-2.5000000000000000e-01 2.5000000000000000e-01
ITEM: ATOMS id x y 
42467 -2 138.949 
42466 -1 138.949 
42465 -1.135e-16 138.949 
42472 -2 139.815 
42471 -1 139.815 
42470 -1.2112e-16 139.815 
42477 -2 140.681 
42476 -1 140.681 
42475 -1.28741e-16 140.681 
42482 -2 141.547 
42481 -1 141.547 
42480 -1.36362e-16 141.547 
42487 -2 142.413 
42486 -1 142.413 
42485 -1.43982e-16 142.413 
42464 1 138.949 
42463 2 138.949 
42469 1 139.815 
42468 2 139.815 
42474 1 140.681 
42473 2 140.681 
42479 1 141.547 
42478 2 141.547 
42484 1 142.413 
42483 2 142.413 
ITEM: TIMESTEP
30000
ITEM: NUMBER OF ATOMS
25
ITEM: BOX BOUNDS ff fm pp
-4.1000000000000000e+01 4.1000000000000000e+01
0.0000000000000000e+00 2.0000000000000000e+02
-2.5000000000000000e-01 2.5000000000000000e-01
ITEM: ATOMS id x y 
42467 -2 138.875 
42466 -1 138.875 
42465 -1.21473e-16 138.875 
42472 -2 139.741 
42471 -1 139.741 
42470 -1.29623e-16 139.741 
42477 -2 140.607 
42476 -1 140.607 
42475 -1.37773e-16 140.607 
42482 -2 141.473 
42481 -1 141.473 
42480 -1.45923e-16 141.473 
42487 -2 142.339 
42486 -1 142.339 
42485 -1.54072e-16 142.339 
42464 1 138.875 
42463 2 138.875 
42469 1 139.741 
42468 2 139.741 
42474 1 140.607 
42473 2 140.607 
42479 1 141.473 
42478 2 141.473 
42484 1 142.339 
42483 2 142.339 
ITEM: TIMESTEP
31000
ITEM: NUMBER OF ATOMS
25
ITEM: BOX BOUNDS ff fm pp
-4.1000000000000000e+01 4.1000000000000000e+01
0.0000000000000000e+00 2.0000000000000000e+02
-2.5000000000000000e-01 2.5000000000000000e-01
ITEM: ATOMS id x y 
42467 -2 138.799 
42466 -1 138.799 
42465 -1.29817e-16 138.799 
42472 -2 139.665 
42471 -1 139.665 
42470 -1.38464e-16 139.665 
42477 -2 140.531 
42476 -1 140.531 
42475 -1.47111e-16 140.531 
42482 -2 141.397 
42481 -1 141.397 
42480 -1.55758e-16 141.397 
42487 -2 142.263 
42486 -1 142.263 
42485 -1.64405e-16 142.263 
42464 1 138.799 
42463 2 138.799 
42469 1 139.665 
42468 2 139.665 
42474 1 140.531 
42473 2 140.531 
42479 1 141.397 
42478 2 141.397 
42484 1 142.263 
42483 2 142.263 
ITEM: TIMESTEP
32000
ITEM: NUMBER OF ATOMS
25
ITEM: BOX BOUNDS ff fm pp
-4.1000000000000000e+01 4.1000000000000000e+01
0.0000000000000000e+00 2.0000000000000000e+02
-2.5000000000000000e-01 2.5000000000000000e-01
ITEM: ATOMS id x y 
42467 -2 138.72 
42466 -1 138.72 
42465 -1.38527e-16 138.72 
42472 -2 139.586 
42471 -1 139.586 
42470 -1.47641e-16 139.586 
42477 -2 140.452 
42476 -1 140.452 
42475 -1.56755e-16 140.452 
42482 -2 141.318 
42481 -1 141.318 
42480 -1.65869e-16 141.318 
42487 -2 142.184 
42486 -1 142.184 
42485 -1.74983e-16 142.184 
42464 1 138.72 
42463 2 138.72 
42469 1 139.586 
42468 2 139.586 
42474 1 140.452 
42473 2 140.452 
42479 1 141.318 
42478 2 141.318 
42484 1 142.184 
42483 2 142.184 
ITEM: TIMESTEP
33000
ITEM: NUMBER OF ATOMS
25
ITEM: BOX BOUNDS ff fm pp
-4.1000000000000000e+01 4.1000000000000000e+01
0.0000000000000000e+00 2.0000000000000000e+02
-2.5000000000000000e-01 2.5000000000000000e-01
ITEM: ATOMS id x y 
42467 -2 138.639 
42466 -1 138.639 
42465 -1.476e-16 138.639 
42472 -2 139.505 
42471 -1 139.505 
42470 -1.57152e-16 139.505 
42477 -2 140.371 
42476 -1 140.371 
42475 -1.66705e-16 140.371 
42482 -2 141.237 
42481 -1 141.237 
42480 -1.76258e-16 141.237 
42487 -2 142.103 
42486 -1 142.103 
42485 -1.8581e-16 142.103 
42464 1 138.639 
42463 2 138.639 
42469 1 139.505 
42468 2 139.505 
42474 1 140.371 
42473 2 140.371 
42479 1 141.237 
42478 2 141.237 
42484 1 142.103 
42483 2 142.103 
ITEM: TIMESTEP
34000
ITEM: NUMBER OF ATOMS
25
ITEM: BOX BOUNDS ff fm pp
-4.1000000000000000e+01 4.1000000000000000e+01
0.0000000000000000e+00 2.0000000000000000e+02
-2.5000000000000000e-01 2.5000000000000000e-01
ITEM: ATOMS id x y 
42467 -2 138.555 
42466 -1 138.555 
42465 -1.57032e-16 138.555 
42472 -2 139.421 
42471 -1 139.421 
42470 -1.66997e-16 139.421 
42477 -2 140.287 
42476 -1 140.287 
42475 -1.76961e-16 140.287 
42482 -2 141.153 
42481 -1 141.153 
42480 -1.86926e-16 141.153 
42487 -2 142.019 
42486 -1 142.019 
42485 -1.96891e-16 142.019 
42464 1 138.555 
42463 2 138.555 
42469 1 139.421 
42468 2 139.421 
42474 1 140.287 
42473 2 140.287 
42479 1 141.153 
42478 2 141.153 
42484 1 142.019 
42483 2 142.019 
ITEM: TIMESTEP
35000
ITEM: NUMBER OF ATOMS
25
ITEM: BOX BOUNDS ff fm pp
-4.1000000000000000e+01 4.1000000000000000e+01
0.0000000000000000e+00 2.0000000000000000e+02
-2.5000000000000000e-01 2.5000000000000000e-01
ITEM: ATOMS id x y 
42467 -2 138.469 
42466 -1 138.469 
42465 -1.66821e-16 138.469 
42472 -2 139.335 
42471 -1 139.335 
42470 -1.77172e-16 139.335 
42477 -2 140.201 
42476 -1 140.201 
42475 -1.87524e-16 140.201 
42482 -2 141.067 
42481 -1 141.067 
42480 -1.97876e-16 141.067 
42487 -2 141.933 
42486 -1 141.933 
42485 -2.08228e-16 141.933 
42464 1 138.469 
42463 2 138.469 
42469 1 139.335 
42468 2 139.335 
42474 1 140.201 
42473 2 140.201 
42479 1 141.067 
42478 2 141.067 
42484 1 141.933 
42483 2 141.933 
ITEM: TIMESTEP
36000
ITEM: NUMBER OF ATOMS
25
ITEM: BOX BOUNDS ff fm pp
-4.1000000000000000e+01 4.1000000000000000e+01
0.0000000000000000e+00 2.0000000000000000e+02
-2.5000000000000000e-01 2.5000000000000000e-01
ITEM: ATOMS id x y 
42467 -2 138.38 
42466 -1 138.38 
42465 -1.76962e-16 138.38 
42472 -2 139.246 
42471 -1 139.246 
42470 -1.87677e-16 139.246 
42477 -2 140.112 
42476 -1 140.112 
42475 -1.98393e-16 140.112 
42482 -2 140.978 
42481 -1 140.978 
42480 -2.09108e-16 140.978 
42487 -2 141.844 
42486 -1 141.844 
42485 -2.19824e-16 141.844 
42464 1 138.38 
42463 2 138.38 
42469 1 139.246 
42468 2 139.246 
42474 1 140.112 
42473 2 140.112 
42479 1 140.978 
42478 2 140.978 
42484 1 141.844 
42483 2 141.844 
ITEM: TIMESTEP
37000
ITEM: NUMBER OF ATOMS
25
ITEM: BOX BOUNDS ff fm pp
-4.1000000000000000e+01 4.1000000000000000e+01
0.0000000000000000e+00 2.0000000000000000e+02
-2.5000000000000000e-01 2.5000000000000000e-01
ITEM: ATOMS id x y 
42467 -2 138.289 
42466 -1 138.289 
42465 -1.87454e-16 138.289 
42472 -2 139.155 
42471 -1 139.155 
42470 -1.98511e-16 139.155 
42477 -2 140.021 
42476 -1 140.021 
42475 -2.09568e-16 140.021 
42482 -2 140.887 
42481 -1 140.887 
42480 -2.20625e-16 140.887 
42487 -2 141.753 
42486 -1 141.753 
42485 -2.31682e-16 141.753 
42464 1 138.289 
42463 2 138.289 
42469 1 139.155 
42468 2 139.155 
42474 1 140.021 
42473 2 140.021 
42479 1 140.887 
42478 2 140.887 
42484 1 141.753 
42483 2 141.753 
ITEM: TIMESTEP
38000
ITEM: NUMBER OF ATOMS
25
ITEM: BOX BOUNDS ff fm pp
-4.1000000000000000e+01 4.1000000000000000e+01
0.0000000000000000e+00 2.0000000000000000e+02
-2.5000000000000000e-01 2.5000000000000000e-01
ITEM: ATOMS id x y 
42467 -2 138.195 
42466 -1 138.195 
42465 -1.98293e-16 138.195 
42472 -2 139.061 
42471 -1 139.061 
42470 -2.09671e-16 139.061 
42477 -2 139.927 
42476 -1 139.927 
42475 -2.21049e-16 139.927 
42482 -2 140.793 
42481 -1 140.793 
42480 -2.32427e-16 140.793 
42487 -2 141.659 
42486 -1 141.659 
42485 -2.43804e-16 141.659 
42464 1 138.195 
42463 2 138.195 
42469 1 139.061 
42468 2 139.061 
42474 1 139.927 
42473 2 139.927 
42479 1 140.793 
42478 2 140.793 
42484 1 141.659 
42483 2 141.659 
ITEM: TIMESTEP
39000
ITEM: NUMBER OF ATOMS
25
ITEM: BOX BOUNDS ff fm pp
-4.1000000000000000e+01 4.1000000000000000e+01
0.0000000000000000e+00 2.0000000000000000e+02
-2.5000000000000000e-01 2.5000000000000000e-01
ITEM: ATOMS id x y 
42467 -2 138.099 
42466 -1 138.099 
42465 -2.10257e-16 138.099 
42472 -2 138.965 
42471 -1 138.965 
42470 -2.21546e-16 138.965 
42477 -2 139.831 
42476 -1 139.831 
42475 -2.32836e-16 139.831 
42482 -2 140.697 
42481 -1 140.697 
42480 -2.44126e-16 140.697 
42487 -2 141.563 
42486 -1 141.563 
42485 -2.55415e-16 141.563 
42464 1 138.099 
42463 2 138.099 
42469 1 138.965 
42468 2 138.965 
42474 1 139.831 
42473 2 139.831 
42479 1 140.697 
42478 2 140.697 
42484 1 141.563 
42483 2 141.563 
ITEM: TIMESTEP
40000
ITEM: NUMBER OF ATOMS
25
ITEM: BOX BOUNDS ff fm pp
-4.1000000000000000e+01 4.1000000000000000e+01
0.0000000000000000e+00 2.0000000000000000e+02
-2.5000000000000000e-01 2.5000000000000000e-01
ITEM: ATOMS id x y 
42467 -2 138 
42466 -1 138 
42465 -2.22926e-16 138 
42472 -2 138.866 
42471 -1 138.866 
42470 -2.33928e-16 138.866 
42477 -2 139.732 
42476 -1 139.732 
42475 -2.44929e-16 139.732 
42482 -2 140.598 
42481 -1 140.598 
42480 -2.55931e-16 140.598 
42487 -2 141.464 
42486 -1 141.464 
42485 -2.66932e-16 141.464 
42464 1 138 
42463 2 138 
42469 1 138.866 
42468 2 138.866 
42474 1 139.732 
42473 2 139.732 
42479 1 140.598 
42478 2 140.598 
42484 1 141.464 
42483 2 141.464 
ITEM: TIMESTEP
41000
ITEM: NUMBER OF ATOMS
25
ITEM: BOX BOUNDS ff fm pp
-4.1000000000000000e+01 4.1000000000000000e+01
0.0000000000000000e+00 2.0000000000000000e+02
-2.5000000000000000e-01 2.5000000000000000e-01
ITEM: ATOMS id x y 
42467 -2 137.899 
42466 -1 137.899 
42465 -2.35867e-16 137.899 
42472 -2 138.765 
42471 -1 138.765 
42470 -2.46598e-16 138.765 
42477 -2 139.631 
42476 -1 139.631 
42475 -2.57329e-16 139.631 
42482 -2 140.497 
42481 -1 140.497 
42480 -2.6806e-16 140.497 
42487 -2 141.363 
42486 -1 141.363 
42485 -2.7879e-16 141.363 
42464 1 137.899 