ITEM: TIMESTEP
0
ITEM: NUMBER OF ATOMS
25
ITEM: BOX BOUNDS ff fm pp
-4.1000000000000000e+01 4.1000000000000000e+01
0.0000000000000000e+00 2.0000000000000000e+02
-2.5000000000000000e-01 2.5000000000000000e-01
ITEM: ATOMS id type x y vx vy fx fy omegaz tqz c_101[1] c_101[2] c_101[4] c_102 
42467 2 -2 140 0 0 -1.92367e-14 -49209.1 0 0 -0 -21239.5 -0 2 
42466 2 -1 140 0 0 -1.92367e-14 -49209.1 0 0 -0 -21239.5 -0 3 
42472 2 -2 140.866 0 0 -1.92367e-14 -157.08 0 0 -0 -42479.1 -0 3 
42471 2 -1 140.866 0 0 -1.92367e-14 -157.08 0 0 -0 -42479.1 -0 4 
42477 2 -2 141.732 0 0 -1.92367e-14 -157.08 0 0 -0 -42479.1 -0 3 
42476 2 -1 141.732 0 0 -1.92367e-14 -157.08 0 0 -0 -42479.1 -0 4 
42482 2 -2 142.598 0 0 -1.92367e-14 -157.08 0 0 -0 -42479.1 -0 3 
42481 2 -1 142.598 0 0 -1.92367e-14 -157.08 0 0 -0 -42479.1 -0 4 
42487 2 -2 143.464 0 0 -1.92367e-14 48895 0 0 -0 -21239.5 -0 2 
42486 2 -1 143.464 0 0 -1.92367e-14 48895 0 0 -0 -21239.5 -0 3 
42465 2 0 140 0 0 -1.92367e-14 -49209.1 0 0 -0 -21239.5 -0 3 
42464 2 1 140 0 0 -1.92367e-14 -49209.1 0 0 -0 -21239.5 -0 3 
42463 2 2 140 0 0 -1.92367e-14 -49209.1 0 0 -0 -21239.5 -0 2 
42470 2 0 140.866 0 0 -1.92367e-14 -157.08 0 0 -0 -42479.1 -0 4 
42469 2 1 140.866 0 0 -1.92367e-14 -157.08 0 0 -0 -42479.1 -0 4 
42468 2 2 140.866 0 0 -1.92367e-14 -157.08 0 0 -0 -42479.1 -0 3 
42475 2 0 141.732 0 0 -1.92367e-14 -157.08 0 0 -0 -42479.1 -0 4 
42474 2 1 141.732 0 0 -1.92367e-14 -157.08 0 0 -0 -42479.1 -0 4 
42473 2 2 141.732 0 0 -1.92367e-14 -157.08 0 0 -0 -42479.1 -0 3 
42480 2 0 142.598 0 0 -1.92367e-14 -157.08 0 0 -0 -42479.1 -0 4 
42479 2 1 142.598 0 0 -1.92367e-14 -157.08 0 0 -0 -42479.1 -0 4 
42478 2 2 142.598 0 0 -1.92367e-14 -157.08 0 0 -0 -42479.1 -0 3 
42485 2 0 143.464 0 0 -1.92367e-14 48895 0 0 -0 -21239.5 -0 3 
42484 2 1 143.464 0 0 -1.92367e-14 48895 0 0 -0 -21239.5 -0 3 
42483 2 2 143.464 0 0 -1.92367e-14 48895 0 0 -0 -21239.5 -0 2 
ITEM: TIMESTEP
1000
ITEM: NUMBER OF ATOMS
25
ITEM: BOX BOUNDS ff fm pp
-4.1000000000000000e+01 4.1000000000000000e+01
0.0000000000000000e+00 2.0000000000000000e+02
-2.5000000000000000e-01 2.5000000000000000e-01
ITEM: ATOMS id type x y vx vy fx fy omegaz tqz c_101[1] c_101[2] c_101[4] c_102 
42467 2 -2 139.999 4.28837e-18 -0.05 2.84683e-13 -49209.1 6.01132e-18 -1.5196e-13 -0 -21239.5 -0 2 
42466 2 -1 139.999 4.28837e-18 -0.05 2.84683e-13 -49209.1 6.01132e-18 -1.5196e-13 -0 -21239.5 -0 3 
42472 2 -2 140.865 -9.17434e-19 -0.05 -1.92367e-14 -157.08 6.01132e-18 -3.03919e-13 -0 -42479.1 -0 3 
42471 2 -1 140.865 -9.17434e-19 -0.05 -1.92367e-14 -157.08 6.01132e-18 -3.03919e-13 -0 -42479.1 -0 4 
42477 2 -2 141.731 -6.12323e-18 -0.05 -1.92367e-14 -157.08 6.01132e-18 -3.03919e-13 -0 -42479.1 -0 3 
42476 2 -1 141.731 -6.12323e-18 -0.05 -1.92367e-14 -157.08 6.01132e-18 -3.03919e-13 -0 -42479.1 -0 4 
42482 2 -2 142.597 -1.1329e-17 -0.05 -1.92367e-14 -157.08 6.01132e-18 -3.03919e-13 -0 -42479.1 -0 3 
42481 2 -1 142.597 -1.1329e-17 -0.05 -1.92367e-14 -157.08 6.01132e-18 -3.03919e-13 -0 -42479.1 -0 4 
42487 2 -2 143.463 -1.65348e-17 -0.05 -3.23156e-13 48895 6.01132e-18 -1.5196e-13 -0 -21239.5 -0 2 
42486 2 -1 143.463 -1.65348e-17 -0.05 -3.23156e-13 48895 6.01132e-18 -1.5196e-13 -0 -21239.5 -0 3 
42465 2 2.63064e-19 139.999 4.28837e-18 -0.05 2.96468e-13 -49209.1 6.01132e-18 -1.5196e-13 -3.28447e-32 -21239.5 5.10318e-15 3 
42464 2 1 139.999 4.28837e-18 -0.05 2.84683e-13 -49209.1 6.01132e-18 -1.5196e-13 -0 -21239.5 -0 3 
42463 2 2 139.999 4.28837e-18 -0.05 2.84683e-13 -49209.1 6.01132e-18 -1.5196e-13 -0 -21239.5 -0 2 
42470 2 5.49913e-20 140.865 -9.17434e-19 -0.05 -1.92367e-14 -157.08 6.01132e-18 -3.03919e-13 -6.56895e-32 -42479.1 1.02064e-14 4 
42469 2 1 140.865 -9.17434e-19 -0.05 -1.92367e-14 -157.08 6.01132e-18 -3.03919e-13 -0 -42479.1 -0 4 
42468 2 2 140.865 -9.17434e-19 -0.05 -1.92367e-14 -157.08 6.01132e-18 -3.03919e-13 -0 -42479.1 -0 3 
42475 2 -1.53081e-19 141.731 -6.12323e-18 -0.05 -1.92367e-14 -157.08 6.01132e-18 -3.03919e-13 -6.56895e-32 -42479.1 1.02064e-14 4 
42474 2 1 141.731 -6.12323e-18 -0.05 -1.92367e-14 -157.08 6.01132e-18 -3.03919e-13 -0 -42479.1 -0 4 
42473 2 2 141.731 -6.12323e-18 -0.05 -1.92367e-14 -157.08 6.01132e-18 -3.03919e-13 -0 -42479.1 -0 3 
42480 2 -3.61153e-19 142.597 -1.1329e-17 -0.05 -1.92367e-14 -157.08 6.01132e-18 -3.03919e-13 -6.56895e-32 -42479.1 1.02064e-14 4 
42479 2 1 142.597 -1.1329e-17 -0.05 -1.92367e-14 -157.08 6.01132e-18 -3.03919e-13 -0 -42479.1 -0 4 
42478 2 2 142.597 -1.1329e-17 -0.05 -1.92367e-14 -157.08 6.01132e-18 -3.03919e-13 -0 -42479.1 -0 3 
42485 2 -5.69225e-19 143.463 -1.65348e-17 -0.05 -3.34942e-13 48895 6.01132e-18 -1.5196e-13 -3.28447e-32 -21239.5 5.10318e-15 3 
42484 2 1 143.463 -1.65348e-17 -0.05 -3.23156e-13 48895 6.01132e-18 -1.5196e-13 -0 -21239.5 -0 3 
42483 2 2 143.463 -1.65348e-17 -0.05 -3.23156e-13 48895 6.01132e-18 -1.5196e-13 -0 -21239.5 -0 2 
ITEM: TIMESTEP
2000
ITEM: NUMBER OF ATOMS
25
ITEM: BOX BOUNDS ff fm pp
-4.1000000000000000e+01 4.1000000000000000e+01
0.0000000000000000e+00 2.0000000000000000e+02
-2.5000000000000000e-01 2.5000000000000000e-01
ITEM: ATOMS id type x y vx vy fx fy omegaz tqz c_101[1] c_101[2] c_101[4] c_102 
42467 2 -2 139.995 9.50845e-19 -0.1 3.82664e-13 -49209.1 7.6197e-18 -2.0095e-13 -0 -21239.5 -0 2 
42466 2 -1 139.995 9.50845e-19 -0.1 3.82664e-13 -49209.1 7.6197e-18 -2.0095e-13 -0 -21239.5 -0 3 
42472 2 -2 140.861 -5.64781e-18 -0.1 -1.92367e-14 -157.08 7.6197e-18 -4.01901e-13 -0 -42479.1 -0 3 
42471 2 -1 140.861 -5.64781e-18 -0.1 -1.92367e-14 -157.08 7.6197e-18 -4.01901e-13 -0 -42479.1 -0 4 
42477 2 -2 141.727 -1.22465e-17 -0.1 -1.92367e-14 -157.08 7.6197e-18 -4.01901e-13 -0 -42479.1 -0 3 
42476 2 -1 141.727 -1.22465e-17 -0.1 -1.92367e-14 -157.08 7.6197e-18 -4.01901e-13 -0 -42479.1 -0 4 
42482 2 -2 142.593 -1.88451e-17 -0.1 -1.92367e-14 -157.08 7.6197e-18 -4.01901e-13 -0 -42479.1 -0 3 
42481 2 -1 142.593 -1.88451e-17 -0.1 -1.92367e-14 -157.08 7.6197e-18 -4.01901e-13 -0 -42479.1 -0 4 
42487 2 -2 143.459 -2.54438e-17 -0.1 -4.21137e-13 48895 7.6197e-18 -2.0095e-13 -0 -21239.5 -0 2 
42486 2 -1 143.459 -2.54438e-17 -0.1 -4.21137e-13 48895 7.6197e-18 -2.0095e-13 -0 -21239.5 -0 3 
42465 2 3.94044e-19 139.995 9.50845e-19 -0.1 4.11165e-13 -49209.1 7.6197e-18 -2.0095e-13 -1.08286e-31 -21239.5 1.23411e-14 3 
42464 2 1 139.995 9.50845e-19 -0.1 3.82664e-13 -49209.1 7.6197e-18 -2.0095e-13 -0 -21239.5 -0 3 
42463 2 2 139.995 9.50845e-19 -0.1 3.82664e-13 -49209.1 7.6197e-18 -2.0095e-13 -0 -21239.5 -0 2 
42470 2 -1.0914e-19 140.861 -5.64781e-18 -0.1 -1.92367e-14 -157.08 7.6197e-18 -4.01901e-13 -2.16571e-31 -42479.1 2.46822e-14 4 
42469 2 1 140.861 -5.64781e-18 -0.1 -1.92367e-14 -157.08 7.6197e-18 -4.01901e-13 -0 -42479.1 -0 4 
42468 2 2 140.861 -5.64781e-18 -0.1 -1.92367e-14 -157.08 7.6197e-18 -4.01901e-13 -0 -42479.1 -0 3 
42475 2 -6.12323e-19 141.727 -1.22465e-17 -0.1 -1.92367e-14 -157.08 7.6197e-18 -4.01901e-13 -2.16571e-31 -42479.1 2.46822e-14 4 
42474 2 1 141.727 -1.22465e-17 -0.1 -1.92367e-14 -157.08 7.6197e-18 -4.01901e-13 -0 -42479.1 -0 4 
42473 2 2 141.727 -1.22465e-17 -0.1 -1.92367e-14 -157.08 7.6197e-18 -4.01901e-13 -0 -42479.1 -0 3 
42480 2 -1.11551e-18 142.593 -1.88451e-17 -0.1 -1.92367e-14 -157.08 7.6197e-18 -4.01901e-13 -2.16571e-31 -42479.1 2.46822e-14 4 
42479 2 1 142.593 -1.88451e-17 -0.1 -1.92367e-14 -157.08 7.6197e-18 -4.01901e-13 -0 -42479.1 -0 4 
42478 2 2 142.593 -1.88451e-17 -0.1 -1.92367e-14 -157.08 7.6197e-18 -4.01901e-13 -0 -42479.1 -0 3 
42485 2 -1.61869e-18 143.459 -2.54438e-17 -0.1 -4.49639e-13 48895 7.6197e-18 -2.0095e-13 -1.08286e-31 -21239.5 1.23411e-14 3 
42484 2 1 143.459 -2.54438e-17 -0.1 -4.21137e-13 48895 7.6197e-18 -2.0095e-13 -0 -21239.5 -0 3 
42483 2 2 143.459 -2.54438e-17 -0.1 -4.21137e-13 48895 7.6197e-18 -2.0095e-13 -0 -21239.5 -0 2 
ITEM: TIMESTEP
3000
ITEM: NUMBER OF ATOMS
25
ITEM: BOX BOUNDS ff fm pp
-4.1000000000000000e+01 4.1000000000000000e+01
0.0000000000000000e+00 2.0000000000000000e+02
-2.5000000000000000e-01 2.5000000000000000e-01
ITEM: ATOMS id type x y vx vy fx fy omegaz tqz c_101[1] c_101[2] c_101[4] c_102 
42467 2 -2 139.989 -4.16953e-18 -0.15 4.35168e-13 -49209.1 8.19871e-18 -2.27202e-13 -0 -21239.5 -0 2 
42466 2 -1 139.989 -4.16953e-18 -0.15 4.35168e-13 -49209.1 8.19871e-18 -2.27202e-13 -0 -21239.5 -0 3 
42472 2 -2 140.855 -1.12696e-17 -0.15 -1.92367e-14 -157.08 8.19871e-18 -4.54405e-13 -0 -42479.1 -0 3 
42471 2 -1 140.855 -1.12696e-17 -0.15 -1.92367e-14 -157.08 8.19871e-18 -4.54405e-13 -0 -42479.1 -0 4 
42477 2 -2 141.721 -1.83697e-17 -0.15 -1.92367e-14 -157.08 8.19871e-18 -4.54405e-13 -0 -42479.1 -0 3 
42476 2 -1 141.721 -1.83697e-17 -0.15 -1.92367e-14 -157.08 8.19871e-18 -4.54405e-13 -0 -42479.1 -0 4 
42482 2 -2 142.587 -2.54698e-17 -0.15 -1.92367e-14 -157.08 8.19871e-18 -4.54405e-13 -0 -42479.1 -0 3 
42481 2 -1 142.587 -2.54698e-17 -0.15 -1.92367e-14 -157.08 8.19871e-18 -4.54405e-13 -0 -42479.1 -0 4 
42487 2 -2 143.453 -3.25699e-17 -0.15 -4.73642e-13 48895 8.19871e-18 -2.27202e-13 -0 -21239.5 -0 2 
42486 2 -1 143.453 -3.25699e-17 -0.15 -4.73642e-13 48895 8.19871e-18 -2.27202e-13 -0 -21239.5 -0 3 
42465 2 3.36575e-19 139.989 -4.16953e-18 -0.15 4.83719e-13 -49209.1 8.19871e-18 -2.27202e-13 -2.15555e-31 -21239.5 2.10225e-14 3 
42464 2 1 139.989 -4.16953e-18 -0.15 4.35168e-13 -49209.1 8.19871e-18 -2.27202e-13 -0 -21239.5 -0 3 
42463 2 2 139.989 -4.16953e-18 -0.15 4.35168e-13 -49209.1 8.19871e-18 -2.27202e-13 -0 -21239.5 -0 2 
42470 2 -5.20576e-19 140.855 -1.12696e-17 -0.15 -1.92367e-14 -157.08 8.19871e-18 -4.54405e-13 -4.31109e-31 -42479.1 4.2045e-14 4 
42469 2 1 140.855 -1.12696e-17 -0.15 -1.92367e-14 -157.08 8.19871e-18 -4.54405e-13 -0 -42479.1 -0 4 
42468 2 2 140.855 -1.12696e-17 -0.15 -1.92367e-14 -157.08 8.19871e-18 -4.54405e-13 -0 -42479.1 -0 3 
42475 2 -1.37773e-18 141.721 -1.83697e-17 -0.15 -1.92367e-14 -157.08 8.19871e-18 -4.54405e-13 -4.31109e-31 -42479.1 4.2045e-14 4 
42474 2 1 141.721 -1.83697e-17 -0.15 -1.92367e-14 -157.08 8.19871e-18 -4.54405e-13 -0 -42479.1 -0 4 
42473 2 2 141.721 -1.83697e-17 -0.15 -1.92367e-14 -157.08 8.19871e-18 -4.54405e-13 -0 -42479.1 -0 3 
42480 2 -2.23488e-18 142.587 -2.54698e-17 -0.15 -1.92367e-14 -157.08 8.19871e-18 -4.54405e-13 -4.31109e-31 -42479.1 4.2045e-14 4 
42479 2 1 142.587 -2.54698e-17 -0.15 -1.92367e-14 -157.08 8.19871e-18 -4.54405e-13 -0 -42479.1 -0 4 
42478 2 2 142.587 -2.54698e-17 -0.15 -1.92367e-14 -157.08 8.19871e-18 -4.54405e-13 -0 -42479.1 -0 3 
42485 2 -3.09203e-18 143.453 -3.25699e-17 -0.15 -5.22193e-13 48895 8.19871e-18 -2.27202e-13 -2.15555e-31 -21239.5 2.10225e-14 3 
42484 2 1 143.453 -3.25699e-17 -0.15 -4.73642e-13 48895 8.19871e-18 -2.27202e-13 -0 -21239.5 -0 3 
42483 2 2 143.453 -3.25699e-17 -0.15 -4.73642e-13 48895 8.19871e-18 -2.27202e-13 -0 -21239.5 -0 2 
ITEM: TIMESTEP
4000
ITEM: NUMBER OF ATOMS
25
ITEM: BOX BOUNDS ff fm pp
-4.1000000000000000e+01 4.1000000000000000e+01
0.0000000000000000e+00 2.0000000000000000e+02
-2.5000000000000000e-01 2.5000000000000000e-01
ITEM: ATOMS id type x y vx vy fx fy omegaz tqz c_101[1] c_101[2] c_101[4] c_102 
42467 2 -2 139.98 -1.11563e-17 -0.2 4.35094e-13 -49209.1 7.70011e-18 -2.27165e-13 -0 -21239.5 -0 2 
42466 2 -1 139.98 -1.11563e-17 -0.2 4.35094e-13 -49209.1 7.70011e-18 -2.27165e-13 -0 -21239.5 -0 3 
42472 2 -2 140.846 -1.78246e-17 -0.2 -1.92367e-14 -157.08 7.70011e-18 -4.54331e-13 -0 -42479.1 -0 3 
42471 2 -1 140.846 -1.78246e-17 -0.2 -1.92367e-14 -157.08 7.70011e-18 -4.54331e-13 -0 -42479.1 -0 4 
42477 2 -2 141.712 -2.44929e-17 -0.2 -1.92367e-14 -157.08 7.70011e-18 -4.54331e-13 -0 -42479.1 -0 3 
42476 2 -1 141.712 -2.44929e-17 -0.2 -1.92367e-14 -157.08 7.70011e-18 -4.54331e-13 -0 -42479.1 -0 4 
42482 2 -2 142.578 -3.11612e-17 -0.2 -1.92367e-14 -157.08 7.70011e-18 -4.54331e-13 -0 -42479.1 -0 3 
42481 2 -1 142.578 -3.11612e-17 -0.2 -1.92367e-14 -157.08 7.70011e-18 -4.54331e-13 -0 -42479.1 -0 4 
42487 2 -2 143.444 -3.78295e-17 -0.2 -4.73568e-13 48895 7.70011e-18 -2.27165e-13 -0 -21239.5 -0 2 
42486 2 -1 143.444 -3.78295e-17 -0.2 -4.73568e-13 48895 7.70011e-18 -2.27165e-13 -0 -21239.5 -0 3 
42465 2 -4.67203e-20 139.98 -1.11563e-17 -0.2 5.03138e-13 -49209.1 7.70011e-18 -2.27165e-13 -3.13761e-31 -21239.5 2.94628e-14 3 
42464 2 1 139.98 -1.11563e-17 -0.2 4.35094e-13 -49209.1 7.70011e-18 -2.27165e-13 -0 -21239.5 -0 3 
42463 2 2 139.98 -1.11563e-17 -0.2 4.35094e-13 -49209.1 7.70011e-18 -2.27165e-13 -0 -21239.5 -0 2 
42470 2 -1.24801e-18 140.846 -1.78246e-17 -0.2 -1.92367e-14 -157.08 7.70011e-18 -4.54331e-13 -6.27521e-31 -42479.1 5.89256e-14 4 
42469 2 1 140.846 -1.78246e-17 -0.2 -1.92367e-14 -157.08 7.70011e-18 -4.54331e-13 -0 -42479.1 -0 4 
42468 2 2 140.846 -1.78246e-17 -0.2 -1.92367e-14 -157.08 7.70011e-18 -4.54331e-13 -0 -42479.1 -0 3 
42475 2 -2.44929e-18 141.712 -2.44929e-17 -0.2 -1.92367e-14 -157.08 7.70011e-18 -4.54331e-13 -6.27521e-31 -42479.1 5.89256e-14 4 
42474 2 1 141.712 -2.44929e-17 -0.2 -1.92367e-14 -157.08 7.70011e-18 -4.54331e-13 -0 -42479.1 -0 4 
42473 2 2 141.712 -2.44929e-17 -0.2 -1.92367e-14 -157.08 7.70011e-18 -4.54331e-13 -0 -42479.1 -0 3 
42480 2 -3.65058e-18 142.578 -3.11612e-17 -0.2 -1.92367e-14 -157.08 7.70011e-18 -4.54331e-13 -6.27521e-31 -42479.1 5.89256e-14 4 
42479 2 1 142.578 -3.11612e-17 -0.2 -1.92367e-14 -157.08 7.70011e-18 -4.54331e-13 -0 -42479.1 -0 4 
42478 2 2 142.578 -3.11612e-17 -0.2 -1.92367e-14 -157.08 7.70011e-18 -4.54331e-13 -0 -42479.1 -0 3 
42485 2 -4.85187e-18 143.444 -3.78295e-17 -0.2 -5.41611e-13 48895 7.70011e-18 -2.27165e-13 -3.13761e-31 -21239.5 2.94628e-14 3 
42484 2 1 143.444 -3.78295e-17 -0.2 -4.73568e-13 48895 7.70011e-18 -2.27165e-13 -0 -21239.5 -0 3 
42483 2 2 143.444 -3.78295e-17 -0.2 -4.73568e-13 48895 7.70011e-18 -2.27165e-13 -0 -21239.5 -0 2 
ITEM: TIMESTEP
5000
ITEM: NUMBER OF ATOMS
25
ITEM: BOX BOUNDS ff fm pp
-4.1000000000000000e+01 4.1000000000000000e+01
0.0000000000000000e+00 2.0000000000000000e+02
-2.5000000000000000e-01 2.5000000000000000e-01
ITEM: ATOMS id type x y vx vy fx fy omegaz tqz c_101[1] c_101[2] c_101[4] c_102 
42467 2 -2 139.969 -1.80874e-17 -0.25 4.35118e-13 -49209.1 7.23368e-18 -2.27177e-13 -0 -21239.5 -0 2 
42466 2 -1 139.969 -1.80874e-17 -0.25 4.35118e-13 -49209.1 7.23368e-18 -2.27177e-13 -0 -21239.5 -0 3 
42472 2 -2 140.835 -2.43518e-17 -0.25 -1.92367e-14 -157.08 7.23368e-18 -4.54355e-13 -0 -42479.1 -0 3 
42471 2 -1 140.835 -2.43518e-17 -0.25 -1.92367e-14 -157.08 7.23368e-18 -4.54355e-13 -0 -42479.1 -0 4 
42477 2 -2 141.701 -3.06162e-17 -0.25 -1.92367e-14 -157.08 7.23368e-18 -4.54355e-13 -0 -42479.1 -0 3 
42476 2 -1 141.701 -3.06162e-17 -0.25 -1.92367e-14 -157.08 7.23368e-18 -4.54355e-13 -0 -42479.1 -0 4 
42482 2 -2 142.567 -3.68805e-17 -0.25 -1.92367e-14 -157.08 7.23368e-18 -4.54355e-13 -0 -42479.1 -0 3 
42481 2 -1 142.567 -3.68805e-17 -0.25 -1.92367e-14 -157.08 7.23368e-18 -4.54355e-13 -0 -42479.1 -0 4 
42487 2 -2 143.433 -4.31449e-17 -0.25 -4.73591e-13 48895 7.23368e-18 -2.27177e-13 -0 -21239.5 -0 2 
42486 2 -1 143.433 -4.31449e-17 -0.25 -4.73591e-13 48895 7.23368e-18 -2.27177e-13 -0 -21239.5 -0 3 
42465 2 -7.77908e-19 139.969 -1.80874e-17 -0.25 5.21472e-13 -49209.1 7.23368e-18 -2.27177e-13 -4.12171e-31 -21239.5 3.73913e-14 3 
42464 2 1 139.969 -1.80874e-17 -0.25 4.35118e-13 -49209.1 7.23368e-18 -2.27177e-13 -0 -21239.5 -0 3 
42463 2 2 139.969 -1.80874e-17 -0.25 4.35118e-13 -49209.1 7.23368e-18 -2.27177e-13 -0 -21239.5 -0 2 
42470 2 -2.30246e-18 140.835 -2.43518e-17 -0.25 -1.92367e-14 -157.08 7.23368e-18 -4.54355e-13 -8.24341e-31 -42479.1 7.47826e-14 4 
42469 2 1 140.835 -2.43518e-17 -0.25 -1.92367e-14 -157.08 7.23368e-18 -4.54355e-13 -0 -42479.1 -0 4 
42468 2 2 140.835 -2.43518e-17 -0.25 -1.92367e-14 -157.08 7.23368e-18 -4.54355e-13 -0 -42479.1 -0 3 
42475 2 -3.82702e-18 141.701 -3.06162e-17 -0.25 -1.92367e-14 -157.08 7.23368e-18 -4.54355e-13 -8.24341e-31 -42479.1 7.47826e-14 4 
42474 2 1 141.701 -3.06162e-17 -0.25 -1.92367e-14 -157.08 7.23368e-18 -4.54355e-13 -0 -42479.1 -0 4 
42473 2 2 141.701 -3.06162e-17 -0.25 -1.92367e-14 -157.08 7.23368e-18 -4.54355e-13 -0 -42479.1 -0 3 
42480 2 -5.35158e-18 142.567 -3.68805e-17 -0.25 -1.92367e-14 -157.08 7.23368e-18 -4.54355e-13 -8.24341e-31 -42479.1 7.47826e-14 4 
42479 2 1 142.567 -3.68805e-17 -0.25 -1.92367e-14 -157.08 7.23368e-18 -4.54355e-13 -0 -42479.1 -0 4 
42478 2 2 142.567 -3.68805e-17 -0.25 -1.92367e-14 -157.08 7.23368e-18 -4.54355e-13 -0 -42479.1 -0 3 
42485 2 -6.87613e-18 143.433 -4.31449e-17 -0.25 -5.59946e-13 48895 7.23368e-18 -2.27177e-13 -4.12171e-31 -21239.5 3.73913e-14 3 
42484 2 1 143.433 -4.31449e-17 -0.25 -4.73591e-13 48895 7.23368e-18 -2.27177e-13 -0 -21239.5 -0 3 
42483 2 2 143.433 -4.31449e-17 -0.25 -4.73591e-13 48895 7.23368e-18 -2.27177e-13 -0 -21239.5 -0 2 
ITEM: TIMESTEP
6000
ITEM: NUMBER OF ATOMS
25
ITEM: BOX BOUNDS ff fm pp
-4.1000000000000000e+01 4.1000000000000000e+01
0.0000000000000000e+00 2.0000000000000000e+02
-2.5000000000000000e-01 2.5000000000000000e-01
ITEM: ATOMS id type x y vx vy fx fy omegaz tqz c_101[1] c_101[2] c_101[4] c_102 
42467 2 -2 139.955 -2.49628e-17 -0.3 4.35328e-13 -49209.1 6.79942e-18 -2.27282e-13 -0 -21239.5 -0 2 
42466 2 -1 139.955 -2.49628e-17 -0.3 4.35328e-13 -49209.1 6.79942e-18 -2.27282e-13 -0 -21239.5 -0 3 
42472 2 -2 140.821 -3.08511e-17 -0.3 -1.92367e-14 -157.08 6.79942e-18 -4.54565e-13 -0 -42479.1 -0 3 
42471 2 -1 140.821 -3.08511e-17 -0.3 -1.92367e-14 -157.08 6.79942e-18 -4.54565e-13 -0 -42479.1 -0 4 
42477 2 -2 141.687 -3.67394e-17 -0.3 -1.92367e-14 -157.08 6.79942e-18 -4.54565e-13 -0 -42479.1 -0 3 
42476 2 -1 141.687 -3.67394e-17 -0.3 -1.92367e-14 -157.08 6.79942e-18 -4.54565e-13 -0 -42479.1 -0 4 
42482 2 -2 142.553 -4.26277e-17 -0.3 -1.92367e-14 -157.08 6.79942e-18 -4.54565e-13 -0 -42479.1 -0 3 
42481 2 -1 142.553 -4.26277e-17 -0.3 -1.92367e-14 -157.08 6.79942e-18 -4.54565e-13 -0 -42479.1 -0 4 
42487 2 -2 143.419 -4.8516e-17 -0.3 -4.73801e-13 48895 6.79942e-18 -2.27282e-13 -0 -21239.5 -0 2 
42486 2 -1 143.419 -4.8516e-17 -0.3 -4.73801e-13 48895 6.79942e-18 -2.27282e-13 -0 -21239.5 -0 3 
42465 2 -1.85445e-18 139.955 -2.49628e-17 -0.3 5.38883e-13 -49209.1 6.79942e-18 -2.27282e-13 -5.10185e-31 -21239.5 4.48392e-14 3 
42464 2 1 139.955 -2.49628e-17 -0.3 4.35328e-13 -49209.1 6.79942e-18 -2.27282e-13 -0 -21239.5 -0 3 
42463 2 2 139.955 -2.49628e-17 -0.3 4.35328e-13 -49209.1 6.79942e-18 -2.27282e-13 -0 -21239.5 -0 2 
42470 2 -3.68268e-18 140.821 -3.08511e-17 -0.3 -1.92367e-14 -157.08 6.79942e-18 -4.54565e-13 -1.02037e-30 -42479.1 8.96784e-14 4 
42469 2 1 140.821 -3.08511e-17 -0.3 -1.92367e-14 -157.08 6.79942e-18 -4.54565e-13 -0 -42479.1 -0 4 
42468 2 2 140.821 -3.08511e-17 -0.3 -1.92367e-14 -157.08 6.79942e-18 -4.54565e-13 -0 -42479.1 -0 3 
42475 2 -5.51091e-18 141.687 -3.67394e-17 -0.3 -1.92367e-14 -157.08 6.79942e-18 -4.54565e-13 -1.02037e-30 -42479.1 8.96784e-14 4 
42474 2 1 141.687 -3.67394e-17 -0.3 -1.92367e-14 -157.08 6.79942e-18 -4.54565e-13 -0 -42479.1 -0 4 
42473 2 2 141.687 -3.67394e-17 -0.3 -1.92367e-14 -157.08 6.79942e-18 -4.54565e-13 -0 -42479.1 -0 3 
42480 2 -7.33914e-18 142.553 -4.26277e-17 -0.3 -1.92367e-14 -157.08 6.79942e-18 -4.54565e-13 -1.02037e-30 -42479.1 8.96784e-14 4 
42479 2 1 142.553 -4.26277e-17 -0.3 -1.92367e-14 -157.08 6.79942e-18 -4.54565e-13 -0 -42479.1 -0 4 
42478 2 2 142.553 -4.26277e-17 -0.3 -1.92367e-14 -157.08 6.79942e-18 -4.54565e-13 -0 -42479.1 -0 3 
42485 2 -9.16737e-18 143.419 -4.8516e-17 -0.3 -5.77356e-13 48895 6.79942e-18 -2.27282e-13 -5.10185e-31 -21239.5 4.48392e-14 3 
42484 2 1 143.419 -4.8516e-17 -0.3 -4.73801e-13 48895 6.79942e-18 -2.27282e-13 -0 -21239.5 -0 3 
42483 2 2 143.419 -4.8516e-17 -0.3 -4.73801e-13 48895 6.79942e-18 -2.27282e-13 -0 -21239.5 -0 2 
ITEM: TIMESTEP
7000
ITEM: NUMBER OF ATOMS
25
ITEM: BOX BOUNDS ff fm pp
-4.1000000000000000e+01 4.1000000000000000e+01
0.0000000000000000e+00 2.0000000000000000e+02
-2.5000000000000000e-01 2.5000000000000000e-01
ITEM: ATOMS id type x y vx vy fx fy omegaz tqz c_101[1] c_101[2] c_101[4] c_102 
42467 2 -2 139.939 -3.18103e-17 -0.35 4.35031e-13 -49209.1 6.38124e-18 -2.27134e-13 -0 -21239.5 -0 2 
42466 2 -1 139.939 -3.18103e-17 -0.35 4.35031e-13 -49209.1 6.38124e-18 -2.27134e-13 -0 -21239.5 -0 3 
42472 2 -2 140.805 -3.73365e-17 -0.35 -1.92367e-14 -157.08 6.38124e-18 -4.54268e-13 -0 -42479.1 -0 3 
42471 2 -1 140.805 -3.73365e-17 -0.35 -1.92367e-14 -157.08 6.38124e-18 -4.54268e-13 -0 -42479.1 -0 4 
42477 2 -2 141.671 -4.28626e-17 -0.35 -1.92367e-14 -157.08 6.38124e-18 -4.54268e-13 -0 -42479.1 -0 3 
42476 2 -1 141.671 -4.28626e-17 -0.35 -1.92367e-14 -157.08 6.38124e-18 -4.54268e-13 -0 -42479.1 -0 4 
42482 2 -2 142.537 -4.83888e-17 -0.35 -1.92367e-14 -157.08 6.38124e-18 -4.54268e-13 -0 -42479.1 -0 3 
42481 2 -1 142.537 -4.83888e-17 -0.35 -1.92367e-14 -157.08 6.38124e-18 -4.54268e-13 -0 -42479.1 -0 4 
42487 2 -2 143.403 -5.3915e-17 -0.35 -4.73505e-13 48895 6.38124e-18 -2.27134e-13 -0 -21239.5 -0 2 
42486 2 -1 143.403 -5.3915e-17 -0.35 -4.73505e-13 48895 6.38124e-18 -2.27134e-13 -0 -21239.5 -0 3 
42465 2 -3.27399e-18 139.939 -3.18103e-17 -0.35 5.54743e-13 -49209.1 6.38124e-18 -2.27134e-13 -6.0655e-31 -21239.5 5.18354e-14 3 
42464 2 1 139.939 -3.18103e-17 -0.35 4.35031e-13 -49209.1 6.38124e-18 -2.27134e-13 -0 -21239.5 -0 3 
42463 2 2 139.939 -3.18103e-17 -0.35 4.35031e-13 -49209.1 6.38124e-18 -2.27134e-13 -0 -21239.5 -0 2 
42470 2 -5.38748e-18 140.805 -3.73365e-17 -0.35 -1.92367e-14 -157.08 6.38124e-18 -4.54268e-13 -1.2131e-30 -42479.1 1.03671e-13 4 
42469 2 1 140.805 -3.73365e-17 -0.35 -1.92367e-14 -157.08 6.38124e-18 -4.54268e-13 -0 -42479.1 -0 4 
42468 2 2 140.805 -3.73365e-17 -0.35 -1.92367e-14 -157.08 6.38124e-18 -4.54268e-13 -0 -42479.1 -0 3 
42475 2 -7.50096e-18 141.671 -4.28626e-17 -0.35 -1.92367e-14 -157.08 6.38124e-18 -4.54268e-13 -1.2131e-30 -42479.1 1.03671e-13 4 
42474 2 1 141.671 -4.28626e-17 -0.35 -1.92367e-14 -157.08 6.38124e-18 -4.54268e-13 -0 -42479.1 -0 4 
42473 2 2 141.671 -4.28626e-17 -0.35 -1.92367e-14 -157.08 6.38124e-18 -4.54268e-13 -0 -42479.1 -0 3 
42480 2 -9.61445e-18 142.537 -4.83888e-17 -0.35 -1.92367e-14 -157.08 6.38124e-18 -4.54268e-13 -1.2131e-30 -42479.1 1.03671e-13 4 
42479 2 1 142.537 -4.83888e-17 -0.35 -1.92367e-14 -157.08 6.38124e-18 -4.54268e-13 -0 -42479.1 -0 4 
42478 2 2 142.537 -4.83888e-17 -0.35 -1.92367e-14 -157.08 6.38124e-18 -4.54268e-13 -0 -42479.1 -0 3 
42485 2 -1.17279e-17 143.403 -5.3915e-17 -0.35 -5.93217e-13 48895 6.38124e-18 -2.27134e-13 -6.0655e-31 -21239.5 5.18354e-14 3 
42484 2 1 143.403 -5.3915e-17 -0.35 -4.73505e-13 48895 6.38124e-18 -2.27134e-13 -0 -21239.5 -0 3 
42483 2 2 143.403 -5.3915e-17 -0.35 -4.73505e-13 48895 6.38124e-18 -2.27134e-13 -0 -21239.5 -0 2 
ITEM: TIMESTEP
8000
ITEM: NUMBER OF ATOMS
25
ITEM: BOX BOUNDS ff fm pp
-4.1000000000000000e+01 4.1000000000000000e+01
0.0000000000000000e+00 2.0000000000000000e+02
-2.5000000000000000e-01 2.5000000000000000e-01
ITEM: ATOMS id type x y vx vy fx fy omegaz tqz c_101[1] c_101[2] c_101[4] c_102 
42467 2 -2 139.92 -3.86021e-17 -0.4 4.35081e-13 -49209.1 5.99523e-18 -2.27159e-13 -0 -21239.5 -0 2 
42466 2 -1 139.92 -3.86021e-17 -0.4 4.35081e-13 -49209.1 5.99523e-18 -2.27159e-13 -0 -21239.5 -0 3 
42472 2 -2 140.786 -4.3794e-17 -0.4 -1.92367e-14 -157.08 5.99523e-18 -4.54318e-13 -0 -42479.1 -0 3 
42471 2 -1 140.786 -4.3794e-17 -0.4 -1.92367e-14 -157.08 5.99523e-18 -4.54318e-13 -0 -42479.1 -0 4 
42477 2 -2 141.652 -4.89859e-17 -0.4 -1.92367e-14 -157.08 5.99523e-18 -4.54318e-13 -0 -42479.1 -0 3 
42476 2 -1 141.652 -4.89859e-17 -0.4 -1.92367e-14 -157.08 5.99523e-18 -4.54318e-13 -0 -42479.1 -0 4 
42482 2 -2 142.518 -5.41777e-17 -0.4 -1.92367e-14 -157.08 5.99523e-18 -4.54318e-13 -0 -42479.1 -0 3 
42481 2 -1 142.518 -5.41777e-17 -0.4 -1.92367e-14 -157.08 5.99523e-18 -4.54318e-13 -0 -42479.1 -0 4 
42487 2 -2 143.384 -5.93696e-17 -0.4 -4.73555e-13 48895 5.99523e-18 -2.27159e-13 -0 -21239.5 -0 2 
42486 2 -1 143.384 -5.93696e-17 -0.4 -4.73555e-13 48895 5.99523e-18 -2.27159e-13 -0 -21239.5 -0 3 
42465 2 -5.03426e-18 139.92 -3.86021e-17 -0.4 5.69972e-13 -49209.1 5.99523e-18 -2.27159e-13 -7.01587e-31 -21239.5 5.84077e-14 3 
42464 2 1 139.92 -3.86021e-17 -0.4 4.35081e-13 -49209.1 5.99523e-18 -2.27159e-13 -0 -21239.5 -0 3 
42463 2 2 139.92 -3.86021e-17 -0.4 4.35081e-13 -49209.1 5.99523e-18 -2.27159e-13 -0 -21239.5 -0 2 
42470 2 -7.41572e-18 140.786 -4.3794e-17 -0.4 -1.92367e-14 -157.08 5.99523e-18 -4.54318e-13 -1.40317e-30 -42479.1 1.16815e-13 4 
42469 2 1 140.786 -4.3794e-17 -0.4 -1.92367e-14 -157.08 5.99523e-18 -4.54318e-13 -0 -42479.1 -0 4 
42468 2 2 140.786 -4.3794e-17 -0.4 -1.92367e-14 -157.08 5.99523e-18 -4.54318e-13 -0 -42479.1 -0 3 
42475 2 -9.79717e-18 141.652 -4.89859e-17 -0.4 -1.92367e-14 -157.08 5.99523e-18 -4.54318e-13 -1.40317e-30 -42479.1 1.16815e-13 4 
42474 2 1 141.652 -4.89859e-17 -0.4 -1.92367e-14 -157.08 5.99523e-18 -4.54318e-13 -0 -42479.1 -0 4 
42473 2 2 141.652 -4.89859e-17 -0.4 -1.92367e-14 -157.08 5.99523e-18 -4.54318e-13 -0 -42479.1 -0 3 
42480 2 -1.21786e-17 142.518 -5.41777e-17 -0.4 -1.92367e-14 -157.08 5.99523e-18 -4.54318e-13 -1.40317e-30 -42479.1 1.16815e-13 4 
42479 2 1 142.518 -5.41777e-17 -0.4 -1.92367e-14 -157.08 5.99523e-18 -4.54318e-13 -0 -42479.1 -0 4 
42478 2 2 142.518 -5.41777e-17 -0.4 -1.92367e-14 -157.08 5.99523e-18 -4.54318e-13 -0 -42479.1 -0 3 
42485 2 -1.45601e-17 143.384 -5.93696e-17 -0.4 -6.08445e-13 48895 5.99523e-18 -2.27159e-13 -7.01587e-31 -21239.5 5.84077e-14 3 
42484 2 1 143.384 -5.93696e-17 -0.4 -4.73555e-13 48895 5.99523e-18 -2.27159e-13 -0 -21239.5 -0 3 
42483 2 2 143.384 -5.93696e-17 -0.4 -4.73555e-13 48895 5.99523e-18 -2.27159e-13 -0 -21239.5 -0 2 
ITEM: TIMESTEP
9000
ITEM: NUMBER OF ATOMS
25
ITEM: BOX BOUNDS ff fm pp
-4.1000000000000000e+01 4.1000000000000000e+01
0.0000000000000000e+00 2.0000000000000000e+02
-2.5000000000000000e-01 2.5000000000000000e-01
ITEM: ATOMS id type x y vx vy fx fy omegaz tqz c_101[1] c_101[2] c_101[4] c_102 
42467 2 -2 139.899 -4.53494e-17 -0.45 4.35551e-13 -49209.1 5.63496e-18 -2.27394e-13 -0 -21239.5 -0 2 
42466 2 -1 139.899 -4.53494e-17 -0.45 4.35551e-13 -49209.1 5.63496e-18 -2.27394e-13 -0 -21239.5 -0 3 
42465 2 -7.13318e-18 139.899 -4.53494e-17 -0.45 5.847e-13 -49209.1 5.63496e-18 -2.27394e-13 -7.95138e-31 -21239.5 6.45815e-14 3 
42472 2 -2 140.765 -5.02292e-17 -0.45 -1.92367e-14 -157.08 5.63496e-18 -4.54787e-13 -0 -42479.1 -0 3 
42471 2 -1 140.765 -5.02292e-17 -0.45 -1.92367e-14 -157.08 5.63496e-18 -4.54787e-13 -0 -42479.1 -0 4 
42470 2 -9.76636e-18 140.765 -5.02292e-17 -0.45 -1.92367e-14 -157.08 5.63496e-18 -4.54787e-13 -1.59028e-30 -42479.1 1.29163e-13 4 
42477 2 -2 141.631 -5.51091e-17 -0.45 -1.92367e-14 -157.08 5.63496e-18 -4.54787e-13 -0 -42479.1 -0 3 
42476 2 -1 141.631 -5.51091e-17 -0.45 -1.92367e-14 -157.08 5.63496e-18 -4.54787e-13 -0 -42479.1 -0 4 
42475 2 -1.23995e-17 141.631 -5.51091e-17 -0.45 -1.92367e-14 -157.08 5.63496e-18 -4.54787e-13 -1.59028e-30 -42479.1 1.29163e-13 4 
42482 2 -2 142.497 -5.9989e-17 -0.45 -1.92367e-14 -157.08 5.63496e-18 -4.54787e-13 -0 -42479.1 -0 3 
42481 2 -1 142.497 -5.9989e-17 -0.45 -1.92367e-14 -157.08 5.63496e-18 -4.54787e-13 -0 -42479.1 -0 4 
42480 2 -1.50327e-17 142.497 -5.9989e-17 -0.45 -1.92367e-14 -157.08 5.63496e-18 -4.54787e-13 -1.59028e-30 -42479.1 1.29163e-13 4 
42487 2 -2 143.363 -6.48688e-17 -0.45 -4.74024e-13 48895 5.63496e-18 -2.27394e-13 -0 -21239.5 -0 2 
42486 2 -1 143.363 -6.48688e-17 -0.45 -4.74024e-13 48895 5.63496e-18 -2.27394e-13 -0 -21239.5 -0 3 
42485 2 -1.76659e-17 143.363 -6.48688e-17 -0.45 -6.23173e-13 48895 5.63496e-18 -2.27394e-13 -7.95138e-31 -21239.5 6.45815e-14 3 
42464 2 1 139.899 -4.53494e-17 -0.45 4.35551e-13 -49209.1 5.63496e-18 -2.27394e-13 -0 -21239.5 -0 3 
42463 2 2 139.899 -4.53494e-17 -0.45 4.35551e-13 -49209.1 5.63496e-18 -2.27394e-13 -0 -21239.5 -0 2 
42469 2 1 140.765 -5.02292e-17 -0.45 -1.92367e-14 -157.08 5.63496e-18 -4.54787e-13 -0 -42479.1 -0 4 
42468 2 2 140.765 -5.02292e-17 -0.45 -1.92367e-14 -157.08 5.63496e-18 -4.54787e-13 -0 -42479.1 -0 3 
42474 2 1 141.631 -5.51091e-17 -0.45 -1.92367e-14 -157.08 5.63496e-18 -4.54787e-13 -0 -42479.1 -0 4 
42473 2 2 141.631 -5.51091e-17 -0.45 -1.92367e-14 -157.08 5.63496e-18 -4.54787e-13 -0 -42479.1 -0 3 
42479 2 1 142.497 -5.9989e-17 -0.45 -1.92367e-14 -157.08 5.63496e-18 -4.54787e-13 -0 -42479.1 -0 4 
42478 2 2 142.497 -5.9989e-17 -0.45 -1.92367e-14 -157.08 5.63496e-18 -4.54787e-13 -0 -42479.1 -0 3 
42484 2 1 143.363 -6.48688e-17 -0.45 -4.74024e-13 48895 5.63496e-18 -2.27394e-13 -0 -21239.5 -0 3 
42483 2 2 143.363 -6.48688e-17 -0.45 -4.74024e-13 48895 5.63496e-18 -2.27394e-13 -0 -21239.5 -0 2 
ITEM: TIMESTEP
10000
ITEM: NUMBER OF ATOMS
25
ITEM: BOX BOUNDS ff fm pp
-4.1000000000000000e+01 4.1000000000000000e+01
0.0000000000000000e+00 2.0000000000000000e+02
-2.5000000000000000e-01 2.5000000000000000e-01
ITEM: ATOMS id type x y vx vy fx fy omegaz tqz c_101[1] c_101[2] c_101[4] c_102 
42467 2 -2 139.875 -5.20576e-17 -0.5 4.35742e-13 -49209.1 5.2972e-18 -2.27489e-13 -0 -21239.5 -0 2 
42466 2 -1 139.875 -5.20576e-17 -0.5 4.35742e-13 -49209.1 5.2972e-18 -2.27489e-13 -0 -21239.5 -0 3 
42465 2 -9.56853e-18 139.875 -5.20576e-17 -0.5 5.98292e-13 -49209.1 5.2972e-18 -2.27489e-13 -8.86086e-31 -21239.5 7.03843e-14 3 
42472 2 -2 140.741 -5.6645e-17 -0.5 -1.92367e-14 -157.08 5.2972e-18 -4.54979e-13 -0 -42479.1 -0 3 
42471 2 -1 140.741 -5.6645e-17 -0.5 -1.92367e-14 -157.08 5.2972e-18 -4.54979e-13 -0 -42479.1 -0 4 
42470 2 -1.24383e-17 140.741 -5.6645e-17 -0.5 -1.92367e-14 -157.08 5.2972e-18 -4.54979e-13 -1.77217e-30 -42479.1 1.40769e-13 4 
42477 2 -2 141.607 -6.12323e-17 -0.5 -1.92367e-14 -157.08 5.2972e-18 -4.54979e-13 -0 -42479.1 -0 3 
42476 2 -1 141.607 -6.12323e-17 -0.5 -1.92367e-14 -157.08 5.2972e-18 -4.54979e-13 -0 -42479.1 -0 4 
42475 2 -1.53081e-17 141.607 -6.12323e-17 -0.5 -1.92367e-14 -157.08 5.2972e-18 -4.54979e-13 -1.77217e-30 -42479.1 1.40769e-13 4 
42482 2 -2 142.473 -6.58197e-17 -0.5 -1.92367e-14 -157.08 5.2972e-18 -4.54979e-13 -0 -42479.1 -0 3 
42481 2 -1 142.473 -6.58197e-17 -0.5 -1.92367e-14 -157.08 5.2972e-18 -4.54979e-13 -0 -42479.1 -0 4 