LAMMPS (3 Mar 2020)
# Five large disc-shaped intruders dropping from a height onto a 2d bed of disc particles (d=0.5)
# Diameter of the intruders = 2.54
# Height of the intruders from the particle bed = 5.0
# Density of the intruders = 5 different values

dimension	2
atom_style	sphere
boundary	f fm p
newton		off
comm_modify	vel yes

read_data	data.final
  orthogonal box = (-41 0 -0.25) to (41 200 0.25)
  2 by 3 by 1 MPI processor grid
  reading atoms ...
  42487 atoms
  reading velocities ...
  42487 velocities
  read_data CPU = 1.43969 secs

neighbor	0.2 bin
neigh_modify	delay 0

group		remaining type 1
42462 atoms in group remaining
group		intruder type 2
25 atoms in group intruder
set 		type 1 density/disc 1.0	# The granular bed of particles
  42462 settings made for density/disc
set 		type 2 density/disc 200	# The intruders
  25 settings made for density/disc

# Different densities are assigned to the intruders (D = 2.54)


pair_style      gran/hertz/history 2.0e6 2.456e6 1000.0 1000.0 0.5 1
pair_coeff	* *

# timestep	0.00001
timestep	0.00005

fix     1 remaining nve/sphere disc
fix		2 all gravity 1.0 spherical 0.0 -180.0
fix     4 intruder rigid/nve single
1 rigid bodies with 25 atoms

fix             xwalls all wall/gran hertz/history 2.0e6 2.456e6 1000.0 1000.0 0.5 1                 xplane -41 41
fix		ywalls all wall/gran hertz/history 2.0e6 2.456e6 1000.0 1000.0 0.5 1 		yplane 0 NULL

dump            4a all custom 1000 dump.all id type x y vx vy fx fy omegaz diameter # Change the frequency of output according to the memory consumed by this file
dump            4b intruder custom 1000 dump.position id x y


compute 	101 all stress/atom NULL pair
compute 	102 all contact/atom
dump        133 intruder custom 1000 dump.intruder id type x y vx vy fx fy omegaz tqz c_101[1] c_101[2] c_101[4] c_102

fix         3 all enforce2d

compute		1 all erotate/sphere
thermo_style	custom step atoms ke c_1 vol
thermo		1000
thermo_modify	lost ignore norm no
compute_modify	thermo_temp dynamic/dof yes

run		10000000
Neighbor list info ...
  update every 1 steps, delay 0 steps, check yes
  max neighbors/atom: 2000, page size: 100000
  master list distance cutoff = 1.2
  ghost atom cutoff = 1.2
  binsize = 0.6, bins = 137 334 1
  2 neighbor lists, perpetual/occasional/extra = 1 1 0
  (1) pair gran/hertz/history, perpetual
      attributes: half, newton off, size, history
      pair build: half/size/bin/newtoff
      stencil: half/bin/2d/newtoff
      bin: standard
  (2) compute contact/atom, occasional
      attributes: half, newton off, size
      pair build: half/size/bin/newtoff
      stencil: half/bin/2d/newtoff
      bin: standard
Per MPI rank memory allocation (min/avg/max) = 16.76 | 17.35 | 18.46 Mbytes
Step Atoms KinEng c_1 Volume 
       0    42487 0.0083272227 4.7582332e-06        16400 
    1000    42487    6.6499862   0.38833451        16400 
    2000    42487    20.634648   0.19868834        16400 
    3000    42487    44.907091   0.12979851        16400 
    4000    42487    79.167041  0.093596564        16400 
    5000    42487    123.28181  0.069241527        16400 
    6000    42487    177.23398  0.054099574        16400 
    7000    42487    241.06903  0.043763034        16400 
    8000    42487    314.68761  0.034930107        16400 
    9000    42487    398.13701  0.028140315        16400 
   10000    42487    491.39283  0.024337602        16400 
   11000    42487    594.44458  0.019249599        16400 
   12000    42487     707.3407  0.016685484        16400 
   13000    42487    830.01627  0.013883979        16400 
   14000    42487    962.50033  0.011846171        16400 
   15000    42487    1104.7788  0.010123168        16400 
   16000    42487    1256.8639  0.008698654        16400 
   17000    42487    1418.7832 0.0073522038        16400 
   18000    42487    1590.5407 0.0061815881        16400 
   19000    42487     1772.147 0.0053132331        16400 
   20000    42487      1963.59  0.004653347        16400 
   21000    42487    2164.8538 0.0042076815        16400 
   22000    42487    2375.9464 0.0037563309        16400 
   23000    42487     2596.873 0.0033287747        16400 
   24000    42487    2827.6099 0.0029249039        16400 
   25000    42487    3068.1723 0.0026402938        16400 
   26000    42487    3318.5469 0.0023800284        16400 
   27000    42487    3578.7252 0.0021551841        16400 
   28000    42487    3848.7386 0.0019953888        16400 
   29000    42487    4128.5549 0.0018015268        16400 
   30000    42487    4418.1752 0.0017308947        16400 
   31000    42487      4717.59 0.0016447487        16400 
   32000    42487    5026.7976  0.001664422        16400 
   33000    42487    5345.8117 0.0014443479        16400 
   34000    42487    5674.6428 0.0013180068        16400 
   35000    42487    6013.3032 0.0012349396        16400 
   36000    42487     6361.791 0.0011271846        16400 
   37000    42487    6720.1116 0.0010616113        16400 
   38000    42487    7088.2659 0.0010339299        16400 
   39000    42487     7466.249 0.00088388523        16400 
   40000    42487    7854.0659 0.00092667122        16400 
   41000    42487    8251.6961 0.00083619758        16400 
   42000    42487    8659.1445 0.0007777012        16400 
   43000    42487    9076.4136 0.00077677646        16400 
   44000    42487    9503.4968 0.0007454247        16400 
   45000    42487     9940.406 0.00074986285        16400 
   46000    42487    10387.131 0.00067139745        16400 
   47000    42487    10843.652 0.00071052483        16400 
   48000    42487    11309.982 0.00065858428        16400 
   49000    42487    11786.107 0.00061063141        16400 
   50000    42487     12272.04 0.00061978234        16400 
   51000    42487    12767.785 0.00056800721        16400 
   52000    42487    13273.336 0.00051609156        16400 
   53000    42487    13788.717 0.00048521528        16400 
   54000    42487    14313.925 0.00045869975        16400 
   55000    42487    14848.967 0.00044174367        16400 
   56000    42487    15393.845 0.00044550593        16400 
   57000    42487    15948.544 0.00045731017        16400 
   58000    42487    16513.066 0.00040674193        16400 
   59000    42487    17087.407 0.00040670416        16400 
   60000    42487    17671.563 0.00037221151        16400 
   61000    42487     18265.55 0.00039188616        16400 
   62000    42487    18869.354 0.00040669949        16400 
   63000    42487    19482.971 0.00037088308        16400 
   64000    42487    20106.404 0.00040367776        16400 
   65000    42487    20739.634 0.00036393412        16400 
   66000    42487    21382.674 0.00039833775        16400 
   67000    42487    22035.521 0.00039824823        16400 
   68000    42487    22698.163 0.00032574867        16400 
   69000    42487    23370.624 0.00033466218        16400 
   70000    42487      24052.9 0.00033514926        16400 
   71000    42487    24745.002 0.00031004995        16400 
   72000    42487    25446.939 0.00028849888        16400 
   73000    42487    26158.699 0.00031638452        16400 
   74000    42487    26880.289 0.00029680509        16400 
   75000    42487      27611.7 0.00030071385        16400 
   76000    42487     28352.93 0.00029418016        16400 
   77000    42487    29103.986 0.00026532395        16400 
   78000    42487    29864.861 0.00026107009        16400 
   79000    42487    30635.557 0.00025180262        16400 
   80000    42487    31416.074 0.00027601972        16400 
   81000    42487      32206.4 0.00022666117        16400 
   82000    42487    33006.539 0.00023518924        16400 
   83000    42487    33816.485 0.00025837282        16400 
   84000    42487    34636.234 0.00021552036        16400 
   85000    42487     35465.79 0.00022632606        16400 
   86000    42487    36305.151 0.00022380567        16400 
   87000    42487     37154.33 0.00020914018        16400 
   88000    42487    38013.332 0.00021348912        16400 
   89000    42487    38882.158 0.00026054254        16400 
   90000    42487    39760.812 0.00027332409        16400 
   91000    42487     40649.29   0.00025076        16400 
   92000    42487    41547.592 0.00021358276        16400 
   93000    42487    42455.719 0.00018003141        16400 
   94000    42487    43373.665 0.00020634108        16400 
   95000    42487    44301.433 0.00019705869        16400 
   96000    42487    45239.023 0.00017894384        16400 
   97000    42487    46186.432 0.00016505685        16400 
   98000    42487     47143.66 0.0002019204        16400 
   99000    42487    48110.699 0.00018834354        16400 
  100000    42487    49087.547 0.00018580217        16400 
  101000    42487    50074.201 0.00020225257        16400 
  102000    42487    51070.662 0.0001902988        16400 
  103000    42487     52076.93 0.00019496779        16400 
  104000    42487    53093.011 0.0001824606        16400 
  105000    42487    54118.911   0.00018828        16400 
  106000    42487    55154.632 0.0001749411        16400 
  107000    42487    56200.179 0.00017521756        16400 
  108000    42487    57255.551 0.0001866526        16400 
  109000    42487    58320.746 0.00016605155        16400 
  110000    42487    59395.764 0.00017410002        16400 
  111000    42487    60480.603 0.00017965977        16400 
  112000    42487    61575.262 0.00018681337        16400 
  113000    42487    62679.746 0.00020179141        16400 
  114000    42487     63794.05 0.00024472588        16400 
  115000    42487    64918.174 0.00024004132        16400 
  116000    42487    66052.111 0.00027455969        16400 
  117000    42487     67195.86 0.00029481038        16400 
  118000    42487    68349.418 0.00029801921        16400 
  119000    42487    69512.782 0.00035278622        16400 
  120000    42487    70685.955 0.00040292282        16400 
  121000    42487    71868.938 0.00042381954        16400 
  122000    42487    73061.736 0.00021669873        16400 
  123000    42487    74264.356 0.00012413811        16400 
  124000    42487    75476.798 0.00013344142        16400 
  125000    42487    76403.258    17.526606        16400 
  126000    42487    76728.559    35.029397        16400 
  127000    42487    77150.089    51.671557        16400 
  128000    42487    77892.211    44.757282        16400 
  129000    42487    78732.847    41.585792        16400 
  130000    42487    79523.291    48.828431        16400 
  131000    42487    80310.747    41.607019        16400 
  132000    42487    81170.857    44.215128        16400 
  133000    42487    82217.973    31.760219        16400 
  134000    42487    83249.914    32.124151        16400 
  135000    42487    84281.764     34.57156        16400 
  136000    42487    85292.734    36.964472        16400 
  137000    42487    86196.569    41.196596        16400 
  138000    42487    87061.342    44.413027        16400 
  139000    42487    88001.442     44.59707        16400 
  140000    42487    88987.328    44.234568        16400 
  141000    42487    90102.668    32.284572        16400 
  142000    42487    91296.152    27.933309        16400 
  143000    42487    92498.483    28.042944        16400 
  144000    42487    93697.415    27.695746        16400 
  145000    42487    94889.999    33.425854        16400 
  146000    42487    95982.364    40.525383        16400 
  147000    42487    97087.531    34.746375        16400 
  148000    42487    98239.709     29.70347        16400 
  149000    42487    99242.563    40.582845        16400 
  150000    42487     100178.2    47.665653        16400 
  151000    42487    101256.07    46.061279        16400 
  152000    42487    101936.86    74.015332        16400 
  153000    42487    102644.31    51.781376        16400 
  154000    42487    103532.06    56.628516        16400 
  155000    42487    104662.27    44.817132        16400 
  156000    42487    105869.74    37.812529        16400 
  157000    42487     107044.1     38.48662        16400 
  158000    42487    108058.94    58.383352        16400 
  159000    42487    109099.71    55.785211        16400 
  160000    42487     110149.7    52.886674        16400 
  161000    42487    111010.76    59.993956        16400 
  162000    42487    111927.95    61.353471        16400 
  163000    42487     112900.4    61.495906        16400 
  164000    42487    113897.32    55.177115        16400 
  165000    42487    115048.05    47.523825        16400 
  166000    42487    116264.83    40.036148        16400 
  167000    42487    117474.05    38.995351        16400 
  168000    42487    118586.45    46.359068        16400 
  169000    42487    119515.99    51.386896        16400 
  170000    42487    120609.82    50.219909        16400 
  171000    42487       121790    44.717972        16400 
  172000    42487    122955.82    42.732671        16400 
  173000    42487    124009.46    48.751933        16400 
  174000    42487    124951.44    53.046592        16400 
  175000    42487    125768.87    66.452836        16400 
  176000    42487    126516.69    71.434742        16400 
  177000    42487    127043.57    86.529893        16400 
  178000    42487    127830.91    72.911052        16400 
  179000    42487    128697.03     77.34535        16400 
  180000    42487     129574.4    71.893807        16400 
  181000    42487    130512.12    70.433618        16400 
  182000    42487    131626.69    58.715374        16400 
  183000    42487    132675.26    59.735981        16400 
  184000    42487    133791.33     56.87257        16400 
  185000    42487    134634.12    84.840627        16400 
  186000    42487    135245.88    88.688578        16400 
  187000    42487    136043.03    93.402919        16400 
  188000    42487    137116.84    73.669628        16400 
  189000    42487    138204.23    66.503798        16400 
  190000    42487    138872.52    97.966735        16400 
  191000    42487    139632.74    84.746766        16400 
  192000    42487    140630.91    66.834617        16400 
  193000    42487    141717.84    58.079943        16400 
  194000    42487    142746.86    79.624863        16400 
  195000    42487     143603.4    82.329783        16400 
  196000    42487    144063.63    89.434933        16400 
  197000    42487    144560.74     88.78413        16400 
  198000    42487    145296.79    93.612177        16400 
  199000    42487    146151.04    75.141689        16400 
  200000    42487     147065.6    84.685835        16400 
  201000    42487    148193.58    70.448744        16400 
  202000    42487    148979.14    79.208395        16400 
  203000    42487    149984.04    77.230532        16400 
  204000    42487    150804.71    95.956616        16400 
  205000    42487    151357.05    86.804233        16400 
  206000    42487    152018.07    97.321837        16400 
  207000    42487    153034.57    75.800768        16400 
  208000    42487    154112.13     65.29655        16400 
  209000    42487     154994.7    87.725618        16400 
  210000    42487    155669.63    95.441538        16400 
  211000    42487    156357.24    85.314606        16400 
  212000    42487    157014.66    105.99591        16400 
  213000    42487    157819.17    95.965248        16400 
  214000    42487     158763.1    75.568922        16400 
  215000    42487    159771.97    81.142831        16400 
  216000    42487    160566.98    82.543643        16400 
  217000    42487       161487    77.801253        16400 
  218000    42487       162496    80.680838        16400 
  219000    42487    163638.86    70.566723        16400 
  220000    42487    164664.95     77.12699        16400 
  221000    42487     165585.5    109.12255        16400 
  222000    42487    166230.83    92.181664        16400 
  223000    42487    166742.25    92.985269        16400 
  224000    42487    167550.48    87.747773        16400 
  225000    42487    168463.81    96.139867        16400 
  226000    42487    169475.06    87.235763        16400 
  227000    42487    170531.05    79.424738        16400 
  228000    42487     171370.2    85.279568        16400 
  229000    42487    172043.65    97.096926        16400 
  230000    42487    172828.97    88.836918        16400 
  231000    42487     173475.5    102.25841        16400 
  232000    42487    174385.94    102.72442        16400 
  233000    42487    175195.43    108.40129        16400 
  234000    42487    176173.64    102.69195        16400 
  235000    42487    176912.57    102.59473        16400 
  236000    42487    177222.93     103.7967        16400 
  237000    42487    177264.56    147.16717        16400 
  238000    42487    177810.86    119.92817        16400 
  239000    42487    178513.65     107.4141        16400 
  240000    42487    179256.15    108.81745        16400 
  241000    42487    180044.27    110.58618        16400 
  242000    42487    181011.47    104.45117        16400 
  243000    42487    182149.03    100.63523        16400 
  244000    42487    182894.96    130.47761        16400 
  245000    42487    183457.09    118.68872        16400 
  246000    42487    183829.65    132.10676        16400 
  247000    42487    184241.86    123.00873        16400 
  248000    42487    184631.05    160.95307        16400 
  249000    42487    185263.11    132.60553        16400 
  250000    42487    185553.67    172.88758        16400 
  251000    42487    186082.84    147.61872        16400 
  252000    42487    187196.01    118.82486        16400 
  253000    42487    188372.76    110.27346        16400 
  254000    42487    189187.21    116.03508        16400 
  255000    42487    189954.34    120.16955        16400 
  256000    42487    190507.75     144.9028        16400 
  257000    42487    191465.46    117.19796        16400 
  258000    42487    192333.82    116.33796        16400 
  259000    42487    193091.71    137.75746        16400 
  260000    42487    193883.11    118.09059        16400 
  261000    42487     194164.5    138.83548        16400 
  262000    42487    194927.68    124.09037        16400 
  263000    42487    195831.61    117.18242        16400 
  264000    42487    196331.49    128.38616        16400 
  265000    42487    196841.22    124.97299        16400 
  266000    42487     197503.6    124.82559        16400 
  267000    42487    197414.15    144.67697        16400 
  268000    42487    197368.12    164.59944        16400 
  269000    42487    197786.16    142.51641        16400 
  270000    42487    198550.22    115.68442        16400 
  271000    42487    199224.29    134.00361        16400 
  272000    42487    199199.74    145.96228        16400 
  273000    42487    199564.05    148.59183        16400 
  274000    42487    200209.58    137.89142        16400 
  275000    42487    201074.17    110.33989        16400 
  276000    42487    201712.79    127.43588        16400 
  277000    42487    201220.42    146.38561        16400 
  278000    42487     200908.3    174.91819        16400 
  279000    42487    200626.63    150.97982        16400 
  280000    42487    201148.02    153.97258        16400 
  281000    42487    201947.68    117.46196        16400 
  282000    42487    202553.53    139.14712        16400 
  283000    42487    202583.57    152.82214        16400 
  284000    42487     203042.5    151.69122        16400 
  285000    42487    202960.98    158.72271        16400 
  286000    42487    202938.06    191.62845        16400 
  287000    42487    202783.51    182.02799        16400 
  288000    42487    202627.15    166.23181        16400 
  289000    42487    203056.47    143.31459        16400 
  290000    42487    203881.28    122.40918        16400 
  291000    42487     204547.7    144.64498        16400 
  292000    42487    204695.68    160.48128        16400 
  293000    42487    204800.64    165.04552        16400 
  294000    42487    205254.31    152.55008        16400 
  295000    42487     205392.4    147.24866        16400 
  296000    42487    205364.84    160.99463        16400 
  297000    42487    205283.93    163.83874        16400 
  298000    42487    205791.29    150.48211        16400 
  299000    42487    206168.31    159.25582        16400 
  300000    42487    206711.51    139.17447        16400 
  301000    42487    207028.45    146.76279        16400 
  302000    42487    207173.93    134.38763        16400 
  303000    42487     207346.6    167.70269        16400 
  304000    42487    207813.02    141.29254        16400 
  305000    42487    208122.05    161.09977        16400 
  306000    42487    208708.33    162.45089        16400 
  307000    42487    208667.99    163.29301        16400 
  308000    42487    209083.92    145.47275        16400 
  309000    42487    209225.45    164.30511        16400 
  310000    42487    208396.55    181.02953        16400 
  311000    42487    207631.92    214.80347        16400 
  312000    42487    207787.46    153.73163        16400 
  313000    42487    208158.31    156.18452        16400 
  314000    42487    207695.18    201.13791        16400 
  315000    42487    206871.79    212.65438        16400 
  316000    42487    206414.58    186.04271        16400 
  317000    42487    205794.98    179.73709        16400 
  318000    42487    205496.08     164.7628        16400 
  319000    42487     205310.7    180.83996        16400 
  320000    42487    204573.51    182.82314        16400 
  321000    42487    204363.37    169.20206        16400 
  322000    42487    203500.13    187.28544        16400 
  323000    42487    202447.29    186.86932        16400 
  324000    42487    201774.98    188.86088        16400 
  325000    42487    200614.11    200.25578        16400 
  326000    42487     199432.1    213.24237        16400 
  327000    42487    198629.42    219.65981        16400 
  328000    42487    198171.34    197.09331        16400 
  329000    42487    197298.17     233.4917        16400 
  330000    42487    196173.29    201.79405        16400 
  331000    42487    195179.72    206.07504        16400 
  332000    42487    194310.93     225.5042        16400 
  333000    42487    194015.68    213.29319        16400 
  334000    42487    193428.14    200.62584        16400 
  335000    42487    192853.34    176.53883        16400 
  336000    42487     192275.4    183.83875        16400 
  337000    42487    192044.04    167.12461        16400 
  338000    42487    190390.73    157.68066        16400 
  339000    42487    188384.76    223.81783        16400 
  340000    42487    187169.16    190.74004        16400 
  341000    42487    186646.24    200.12019        16400 
  342000    42487    185619.14    194.86937        16400 
  343000    42487    184656.13    166.03233        16400 
  344000    42487    183743.14     200.3543        16400 
  345000    42487    183437.36    175.32903        16400 
  346000    42487    183367.85    171.60802        16400 
  347000    42487    182108.65    172.39282        16400 
  348000    42487    180546.17    205.79024        16400 
  349000    42487     179437.4     210.3202        16400 
  350000    42487    178964.11    173.82671        16400 
  351000    42487    177607.78    180.17718        16400 
  352000    42487    176213.21    171.57197        16400 
  353000    42487    175220.58    177.45205        16400 
  354000    42487    174691.32    165.21149        16400 
  355000    42487    173643.96    218.90502        16400 
  356000    42487    172161.59    197.42191        16400 
  357000    42487    170689.09    195.65713        16400 
  358000    42487    168989.94    221.46118        16400 
  359000    42487    167813.02    194.49597        16400 
  360000    42487    166281.42    228.89842        16400 
  361000    42487    165066.76    196.84591        16400 
  362000    42487    163976.58    184.20584        16400 
  363000    42487    163517.77    179.07092        16400 
  364000    42487    162707.94    168.63438        16400 
  365000    42487     161549.8    138.59701        16400 
  366000    42487    159760.65    149.53369        16400 
  367000    42487    157927.11    195.46489        16400 
  368000    42487    155893.04    166.38327        16400 
  369000    42487    153911.97    162.86876        16400 
  370000    42487    151574.47    175.47561        16400 
  371000    42487    149683.26    203.17139        16400 
  372000    42487    147674.34    201.93056        16400 
  373000    42487    145592.46    216.18198        16400 
  374000    42487    143812.45    186.08314        16400 
  375000    42487    142242.45    192.23371        16400 
  376000    42487    141090.39    200.14841        16400 
  377000    42487    140431.26     171.6651        16400 
  378000    42487    140031.69     170.2179        16400 
  379000    42487    138175.39    146.33588        16400 
  380000    42487    135059.85    272.86539        16400 
  381000    42487     132797.5    251.39573        16400 
  382000    42487    131267.68    201.88289        16400 
  383000    42487    130350.96    191.11705        16400 
  384000    42487     128642.2    195.28485        16400 
  385000    42487    126706.62    200.86849        16400 
  386000    42487     124673.3    166.70792        16400 
  387000    42487    123080.03    189.74841        16400 
  388000    42487     121135.3    189.49081        16400 
  389000    42487    117093.62    445.41544        16400 
  390000    42487    112653.36    255.97994        16400 
  391000    42487    106081.83    260.60593        16400 
  392000    42487    98674.974    293.23768        16400 
  393000    42487    69687.899    176.73377        16400 
  394000    42487    22753.562    152.66097        16400 
  395000    42487    3824.1925    135.33436        16400 
  396000    42487    31832.991    245.69426        16400 
  397000    42487    41170.427    328.43715        16400 
  398000    42487    37655.722    180.66677        16400 
  399000    42487     35626.63    104.19651        16400 
  400000    42487    34125.876     74.13083        16400 
  401000    42487    32813.754    62.746696        16400 
  402000    42487    31548.185    52.767928        16400 
  403000    42487    30372.956    43.255738        16400 
  404000    42487    29240.873    45.062533        16400 
  405000    42487    28168.912    41.535414        16400 
  406000    42487    27116.899    37.569295        16400 
  407000    42487    26097.071    39.798545        16400 
  408000    42487     25071.39    43.896856        16400 
  409000    42487    24067.472    37.159579        16400 
  410000    42487    23051.518    36.757144        16400 
  411000    42487    22056.285    40.288257        16400 
  412000    42487    21133.796    42.989917        16400 
  413000    42487    20246.176    36.405666        16400 
  414000    42487    19346.517    34.789678        16400 
  415000    42487    18412.014    33.336181        16400 
  416000    42487    17505.819    34.486015        16400 
  417000    42487     16626.46    39.386437        16400 
  418000    42487    15829.836    39.846233        16400 
  419000    42487    15081.815    33.149854        16400 
  420000    42487    14331.484    32.322072        16400 
  421000    42487    13542.118    33.531078        16400 
  422000    42487    12788.889    37.736469        16400 
  423000    42487    12141.144    33.705545        16400 
  424000    42487    11533.001    28.960034        16400 
  425000    42487    10870.231    29.734774        16400 
  426000    42487    10220.353    30.646151        16400 
  427000    42487     9523.077    34.326267        16400 
  428000    42487    8865.3009    29.932323        16400 
  429000    42487    8215.6682    31.610283        16400 
  430000    42487    7630.4819    30.725813        16400 
  431000    42487     7068.732    31.323904        16400 
  432000    42487    6552.2038    30.466444        16400 
  433000    42487    6069.2674    23.304016        16400 
  434000    42487    5605.2362    23.930661        16400 
  435000    42487    5138.0754    25.448185        16400 
  436000    42487    4716.0345    20.216182        16400 
  437000    42487    4304.9463    19.979931        16400 
  438000    42487     3890.378    17.669635        16400 
  439000    42487    3496.2703    16.611067        16400 
  440000    42487     3132.521    16.895636        16400 
  441000    42487    2793.1225    13.089655        16400 
  442000    42487     2478.506    10.444206        16400 
  443000    42487    2178.5261    10.103472        16400 
  444000    42487    1909.0286    11.846758        16400 
  445000    42487    1668.1199    10.320099        16400 
  446000    42487    1442.0384    8.9434322        16400 
  447000    42487    1217.5291    7.4724512        16400 
  448000    42487    998.34993    7.0286262        16400 
  449000    42487    803.39966    8.2592431        16400 
  450000    42487    630.59151    6.0152079        16400 
  451000    42487    483.19386    5.7472142        16400 
  452000    42487     358.3293    5.5407019        16400 
  453000    42487    255.67424     4.638259        16400 
  454000    42487    171.65103    3.5052535        16400 
  455000    42487    107.05791     3.016957        16400 
  456000    42487    59.422846      2.25733        16400 
  457000    42487    32.613356    1.8410744        16400 
  458000    42487    27.714727    1.5992119        16400 
  459000    42487    43.437963    1.6045686        16400 
  460000    42487    76.427475    1.4889139        16400 
  461000    42487    124.26212    1.3809923        16400 
  462000    42487    185.47479    1.2877415        16400 
  463000    42487    259.06684    1.2617404        16400 
  464000    42487    344.83665    1.3686672        16400 
  465000    42487     440.7407    1.4509255        16400 
  466000    42487    543.18489    1.5648119        16400 
  467000    42487    652.14596     1.713011        16400 
  468000    42487    768.10871    2.0080742        16400 
  469000    42487    890.61689    2.3236093        16400 
  470000    42487    1019.9749    2.7140498        16400 
  471000    42487    1149.1027    3.1162261        16400 
  472000    42487    1280.1963    3.8443281        16400 
  473000    42487    1411.4867    3.3106389        16400 
  474000    42487     1542.397    3.3414025        16400 
  475000    42487    1673.8344    4.4380008        16400 
  476000    42487    1801.6546    4.2181979        16400 
  477000    42487    1924.8601    4.4273279        16400 
  478000    42487    2040.6943     5.005634        16400 
  479000    42487    2149.0885    5.7821918        16400 
  480000    42487    2251.3308    5.5036311        16400 
  481000    42487    2350.3889    6.3618412        16400 
  482000    42487    2445.3637    7.4247634        16400 
  483000    42487    2551.4497    8.2522026        16400 
  484000    42487    2650.5497    9.8882607        16400 
  485000    42487    2769.5655    8.7324332        16400 
  486000    42487     2900.851    7.7062675        16400 
  487000    42487    3035.0208    7.4559126        16400 
  488000    42487    3142.7174    6.9517091        16400 
  489000    42487    3224.3429    6.1034198        16400 
  490000    42487    3293.4151    9.5722664        16400 
  491000    42487    3365.0827    13.403843        16400 
  492000    42487    3462.4858    12.181421        16400 
  493000    42487    3578.7246    9.0780055        16400 
  494000    42487    3691.6924    8.5149194        16400 
  495000    42487    3795.2496    8.3673586        16400 
  496000    42487    3890.0888    7.4891012        16400 
  497000    42487    3973.7861    7.7146236        16400 
  498000    42487    4037.8076    6.5344121        16400 
  499000    42487    4078.4976    7.0625929        16400 
  500000    42487    4130.7827    8.5549905        16400 
  501000    42487    4183.4526    9.7033985        16400 
  502000    42487    4202.2023    14.679121        16400 
  503000    42487    4235.7585    17.868079        16400 
  504000    42487    4269.3871    12.964683        16400 
  505000    42487    4256.1836    12.586031        16400 
  506000    42487    4159.7673    10.529986        16400 
  507000    42487    4003.5967    11.112185        16400 
  508000    42487     3887.788    15.259162        16400 
  509000    42487    3788.1471    13.345933        16400 
  510000    42487     3702.184    13.020515        16400 
  511000    42487    3661.2732    13.652864        16400 
  512000    42487    3591.5465    11.271829        16400 
  513000    42487    3476.1606    13.180581        16400 
  514000    42487    3342.1313    16.681931        16400 
  515000    42487    3252.6463    18.378325    