ITEM: TIMESTEP
0
ITEM: NUMBER OF ATOMS
15
ITEM: BOX BOUNDS ff fm pp
-4.1000000000000000e+01 4.1000000000000000e+01
0.0000000000000000e+00 2.0000000000000000e+02
-2.5000000000000000e-01 2.5000000000000000e-01
ITEM: ATOMS id type x y 
42479 3 -0.5 145.327 
42481 3 -1 146.193 
42484 3 -1.5 147.059 
42485 3 -0.5 147.059 
42488 3 -2 147.925 
42489 3 -1 147.925 
42478 3 0 144.461 
42480 3 0.5 145.327 
42482 3 0 146.193 
42483 3 1 146.193 
42486 3 0.5 147.059 
42487 3 1.5 147.059 
42490 3 0 147.925 
42491 3 1 147.925 
42492 3 2 147.925 
ITEM: TIMESTEP
10000
ITEM: NUMBER OF ATOMS
15
ITEM: BOX BOUNDS ff fm pp
-4.1000000000000000e+01 4.1000000000000000e+01
0.0000000000000000e+00 2.0000000000000000e+02
-2.5000000000000000e-01 2.5000000000000000e-01
ITEM: ATOMS id type x y 
42478 3 -1.75076e-17 144.331 
42479 3 -0.5 145.197 
42481 3 -1 146.063 
42482 3 -1.5652e-17 146.063 
42484 3 -1.5 146.929 
42485 3 -0.5 146.929 
42488 3 -2 147.795 
42489 3 -1 147.795 
42490 3 -1.37965e-17 147.795 
42480 3 0.5 145.197 
42483 3 1 146.063 
42486 3 0.5 146.929 
42487 3 1.5 146.929 
42491 3 1 147.795 
42492 3 2 147.795 
ITEM: TIMESTEP
20000
ITEM: NUMBER OF ATOMS
15
ITEM: BOX BOUNDS ff fm pp
-4.1000000000000000e+01 4.1000000000000000e+01
0.0000000000000000e+00 2.0000000000000000e+02
-2.5000000000000000e-01 2.5000000000000000e-01
ITEM: ATOMS id type x y 
42478 3 -7.41975e-17 143.948 
42479 3 -0.5 144.814 
42481 3 -1 145.68 
42482 3 -6.38828e-17 145.68 
42484 3 -1.5 146.546 
42485 3 -0.5 146.546 
42488 3 -2 147.412 
42489 3 -1 147.412 
42490 3 -5.35681e-17 147.412 
42480 3 0.5 144.814 
42483 3 1 145.68 
42486 3 0.5 146.546 
42487 3 1.5 146.546 
42491 3 1 147.412 
42492 3 2 147.412 
ITEM: TIMESTEP
30000
ITEM: NUMBER OF ATOMS
15
ITEM: BOX BOUNDS ff fm pp
-4.1000000000000000e+01 4.1000000000000000e+01
0.0000000000000000e+00 2.0000000000000000e+02
-2.5000000000000000e-01 2.5000000000000000e-01
ITEM: ATOMS id type x y 
42478 3 -1.90938e-16 143.315 
42479 3 -0.5 144.181 
42481 3 -1 145.047 
42482 3 -1.50089e-16 145.047 
42484 3 -1.5 145.913 
42485 3 -0.5 145.913 
42488 3 -2 146.779 
42489 3 -1 146.779 
42490 3 -1.0924e-16 146.779 
42480 3 0.5 144.181 
42483 3 1 145.047 
42486 3 0.5 145.913 
42487 3 1.5 145.913 
42491 3 1 146.779 
42492 3 2 146.779 
ITEM: TIMESTEP
40000
ITEM: NUMBER OF ATOMS
15
ITEM: BOX BOUNDS ff fm pp
-4.1000000000000000e+01 4.1000000000000000e+01
0.0000000000000000e+00 2.0000000000000000e+02
-2.5000000000000000e-01 2.5000000000000000e-01
ITEM: ATOMS id type x y 
42478 3 -3.40368e-16 142.432 
42479 3 -0.5 143.298 
42481 3 -1 144.164 
42482 3 -2.67431e-16 144.164 
42484 3 -1.5 145.03 
42485 3 -0.5 145.03 
42488 3 -2 145.896 
42489 3 -1 145.896 
42490 3 -1.94494e-16 145.896 
42480 3 0.5 143.298 
42483 3 1 144.164 
42486 3 0.5 145.03 
42487 3 1.5 145.03 
42491 3 1 145.896 
42492 3 2 145.896 
ITEM: TIMESTEP
50000
ITEM: NUMBER OF ATOMS
15
ITEM: BOX BOUNDS ff fm pp
-4.1000000000000000e+01 4.1000000000000000e+01
0.0000000000000000e+00 2.0000000000000000e+02
-2.5000000000000000e-01 2.5000000000000000e-01
ITEM: ATOMS id type x y 
42478 3 -5.19077e-16 141.299 
42479 3 -0.5 142.165 
42481 3 -1 143.031 
42482 3 -4.15055e-16 143.031 
42484 3 -1.5 143.897 
42485 3 -0.5 143.897 
42488 3 -2 144.763 
42489 3 -1 144.763 
42490 3 -3.11033e-16 144.763 
42480 3 0.5 142.165 
42483 3 1 143.031 
42486 3 0.5 143.897 
42487 3 1.5 143.897 
42491 3 1 144.763 
42492 3 2 144.763 
ITEM: TIMESTEP
60000
ITEM: NUMBER OF ATOMS
15
ITEM: BOX BOUNDS ff fm pp
-4.1000000000000000e+01 4.1000000000000000e+01
0.0000000000000000e+00 2.0000000000000000e+02
-2.5000000000000000e-01 2.5000000000000000e-01
ITEM: ATOMS id type x y 
42478 3 -7.183e-16 139.916 
42479 3 -0.5 140.782 
42481 3 -1 141.648 
42482 3 -5.9077e-16 141.648 
42484 3 -1.5 142.514 
42485 3 -0.5 142.514 
42488 3 -2 143.38 
42489 3 -1 143.38 
42490 3 -4.6324e-16 143.38 
42480 3 0.5 140.782 
42483 3 1 141.648 
42486 3 0.5 142.514 
42487 3 1.5 142.514 
42491 3 1 143.38 
42492 3 2 143.38 
ITEM: TIMESTEP
70000
ITEM: NUMBER OF ATOMS
15
ITEM: BOX BOUNDS ff fm pp
-4.1000000000000000e+01 4.1000000000000000e+01
0.0000000000000000e+00 2.0000000000000000e+02
-2.5000000000000000e-01 2.5000000000000000e-01
ITEM: ATOMS id type x y 
42478 3 -9.0805e-16 138.283 
42479 3 -0.5 139.149 
42481 3 -1 140.015 
42482 3 -7.87077e-16 140.015 
42484 3 -1.5 140.881 
42485 3 -0.5 140.881 
42488 3 -2 141.747 
42489 3 -1 141.747 
42490 3 -6.66105e-16 141.747 
42480 3 0.5 139.149 
42483 3 1 140.015 
42486 3 0.5 140.881 
42487 3 1.5 140.881 
42491 3 1 141.747 
42492 3 2 141.747 
ITEM: TIMESTEP
80000
ITEM: NUMBER OF ATOMS
15
ITEM: BOX BOUNDS ff fm pp
-4.1000000000000000e+01 4.1000000000000000e+01
0.0000000000000000e+00 2.0000000000000000e+02
-2.5000000000000000e-01 2.5000000000000000e-01
ITEM: ATOMS id type x y 
42478 3 -1.09824e-15 136.401 
42479 3 -0.5 137.267 
42481 3 -1 138.133 
42482 3 -1.00646e-15 138.133 
42484 3 -1.5 138.999 
42485 3 -0.5 138.999 
42488 3 -2 139.865 
42489 3 -1 139.865 
42490 3 -9.1467e-16 139.865 
42480 3 0.5 137.267 
42483 3 1 138.133 
42486 3 0.5 138.999 
42487 3 1.5 138.999 
42491 3 1 139.865 
42492 3 2 139.865 
ITEM: TIMESTEP
90000
ITEM: NUMBER OF ATOMS
15
ITEM: BOX BOUNDS ff fm pp
-4.1000000000000000e+01 4.1000000000000000e+01
0.0000000000000000e+00 2.0000000000000000e+02
-2.5000000000000000e-01 2.5000000000000000e-01
ITEM: ATOMS id type x y 
42478 3 -1.31768e-15 134.268 
42479 3 -0.5 135.134 
42481 3 -1 136 
42482 3 -1.25611e-15 136 
42484 3 -1.5 136.866 
42485 3 -0.5 136.866 
42488 3 -2 137.732 
42489 3 -1 137.732 
42490 3 -1.19454e-15 137.732 
42480 3 0.5 135.134 
42483 3 1 136 
42486 3 0.5 136.866 
42487 3 1.5 136.866 
42491 3 1 137.732 
42492 3 2 137.732 
ITEM: TIMESTEP
100000
ITEM: NUMBER OF ATOMS
15
ITEM: BOX BOUNDS ff fm pp
-4.1000000000000000e+01 4.1000000000000000e+01
0.0000000000000000e+00 2.0000000000000000e+02
-2.5000000000000000e-01 2.5000000000000000e-01
ITEM: ATOMS id type x y 
42478 3 -1.57658e-15 131.885 
42479 3 -0.5 132.751 
42481 3 -1 133.617 
42482 3 -1.53859e-15 133.617 
42484 3 -1.5 134.483 
42485 3 -0.5 134.483 
42488 3 -2 135.349 
42489 3 -1 135.349 
42490 3 -1.50059e-15 135.349 
42480 3 0.5 132.751 
42483 3 1 133.617 
42486 3 0.5 134.483 
42487 3 1.5 134.483 
42491 3 1 135.349 
42492 3 2 135.349 
ITEM: TIMESTEP
110000
ITEM: NUMBER OF ATOMS
15
ITEM: BOX BOUNDS ff fm pp
-4.1000000000000000e+01 4.1000000000000000e+01
0.0000000000000000e+00 2.0000000000000000e+02
-2.5000000000000000e-01 2.5000000000000000e-01
ITEM: ATOMS id type x y 
42478 3 -1.86858e-15 129.252 
42479 3 -0.5 130.118 
42481 3 -1 130.984 
42482 3 -1.85231e-15 130.984 
42484 3 -1.5 131.85 
42485 3 -0.5 131.85 
42488 3 -2 132.716 
42489 3 -1 132.716 
42490 3 -1.83603e-15 132.716 
42480 3 0.5 130.118 
42483 3 1 130.984 
42486 3 0.5 131.85 
42487 3 1.5 131.85 
42491 3 1 132.716 
42492 3 2 132.716 
ITEM: TIMESTEP
120000
ITEM: NUMBER OF ATOMS
15
ITEM: BOX BOUNDS ff fm pp
-4.1000000000000000e+01 4.1000000000000000e+01
0.0000000000000000e+00 2.0000000000000000e+02
-2.5000000000000000e-01 2.5000000000000000e-01
ITEM: ATOMS id type x y 
42478 3 -2.22953e-15 126.369 
42479 3 -0.5 127.235 
42481 3 -1 128.101 
42482 3 -2.20623e-15 128.101 
42484 3 -1.5 128.967 
42485 3 -0.5 128.967 
42488 3 -2 129.833 
42489 3 -1 129.833 
42490 3 -2.18292e-15 129.833 
42480 3 0.5 127.235 
42483 3 1 128.101 
42486 3 0.5 128.967 
42487 3 1.5 128.967 
42491 3 1 129.833 
42492 3 2 129.833 
ITEM: TIMESTEP
130000
ITEM: NUMBER OF ATOMS
15
ITEM: BOX BOUNDS ff fm pp
-4.1000000000000000e+01 4.1000000000000000e+01
0.0000000000000000e+00 2.0000000000000000e+02
-2.5000000000000000e-01 2.5000000000000000e-01
ITEM: ATOMS id type x y 
42478 3 -2.63467e-15 123.236 
42479 3 -0.5 124.102 
42481 3 -1 124.968 
42482 3 -2.59415e-15 124.968 
42484 3 -1.5 125.834 
42485 3 -0.5 125.834 
42488 3 -2 126.7 
42489 3 -1 126.7 
42490 3 -2.55364e-15 126.7 
42480 3 0.5 124.102 
42483 3 1 124.968 
42486 3 0.5 125.834 
42487 3 1.5 125.834 
42491 3 1 126.7 
42492 3 2 126.7 
ITEM: TIMESTEP
140000
ITEM: NUMBER OF ATOMS
15
ITEM: BOX BOUNDS ff fm pp
-4.1000000000000000e+01 4.1000000000000000e+01
0.0000000000000000e+00 2.0000000000000000e+02
-2.5000000000000000e-01 2.5000000000000000e-01
ITEM: ATOMS id type x y 
42478 3 -0.00713274 119.921 
42479 3 -0.505182 120.788 
42481 3 -1.00323 121.655 
42482 3 -0.00323402 121.653 
42484 3 -1.50128 122.523 
42485 3 -0.501283 122.52 
42488 3 -1.99933 123.39 
42489 3 -0.999333 123.387 
42480 3 0.494815 120.786 
42483 3 0.996763 121.651 
42486 3 0.498714 122.518 
42487 3 1.49871 122.516 
42490 3 0.000664704 123.385 
42491 3 1.00066 123.383 
42492 3 2.00066 123.381 
ITEM: TIMESTEP
150000
ITEM: NUMBER OF ATOMS
15
ITEM: BOX BOUNDS ff fm pp
-4.1000000000000000e+01 4.1000000000000000e+01
0.0000000000000000e+00 2.0000000000000000e+02
-2.5000000000000000e-01 2.5000000000000000e-01
ITEM: ATOMS id type x y 
42478 3 -0.030106 116.437 
42479 3 -0.522035 117.308 
42481 3 -1.01396 118.178 
42482 3 -0.014007 118.169 
42484 3 -1.50589 119.049 
42485 3 -0.505936 119.039 
42488 3 -1.99782 119.919 
42489 3 -0.997865 119.91 
42480 3 0.477922 117.298 
42483 3 0.98595 118.16 
42486 3 0.494021 119.03 
42487 3 1.49398 119.021 
42490 3 0.00209193 119.901 
42491 3 1.00205 119.892 
42492 3 2.00201 119.882 
ITEM: TIMESTEP
160000
ITEM: NUMBER OF ATOMS
15
ITEM: BOX BOUNDS ff fm pp
-4.1000000000000000e+01 4.1000000000000000e+01
0.0000000000000000e+00 2.0000000000000000e+02
-2.5000000000000000e-01 2.5000000000000000e-01
ITEM: ATOMS id type x y 
42478 3 -0.0516802 112.742 
42479 3 -0.537267 113.617 
42481 3 -1.02285 114.491 
42482 3 -0.0229917 114.474 
42484 3 -1.50844 115.365 
42485 3 -0.508579 115.348 
42488 3 -1.99403 116.239 
42489 3 -0.994166 116.223 
42480 3 0.462595 113.6 
42483 3 0.976871 114.458 
42486 3 0.491284 115.332 
42487 3 1.49115 115.315 
42491 3 1.00556 116.189 
42492 3 2.00542 116.173 
42490 3 0.00569685 116.206 
ITEM: TIMESTEP
170000
ITEM: NUMBER OF ATOMS
15
ITEM: BOX BOUNDS ff fm pp
-4.1000000000000000e+01 4.1000000000000000e+01
0.0000000000000000e+00 2.0000000000000000e+02
-2.5000000000000000e-01 2.5000000000000000e-01
ITEM: ATOMS id type x y 
42478 3 -0.087888 108.822 
42479 3 -0.561898 109.702 
42481 3 -1.03591 110.583 
42482 3 -0.0363501 110.553 
42484 3 -1.50992 111.463 
42485 3 -0.51036 111.433 
42488 3 -1.98393 112.344 
42489 3 -0.984369 112.314 
42480 3 0.43766 109.672 
42483 3 0.963207 110.523 
42486 3 0.489197 111.404 
42487 3 1.48875 111.374 
42490 3 0.0151877 112.284 
42491 3 1.01474 112.254 
42492 3 2.0143 112.225 
ITEM: TIMESTEP
180000
ITEM: NUMBER OF ATOMS
15
ITEM: BOX BOUNDS ff fm pp
-4.1000000000000000e+01 4.1000000000000000e+01
0.0000000000000000e+00 2.0000000000000000e+02
-2.5000000000000000e-01 2.5000000000000000e-01
ITEM: ATOMS id type x y 
42478 3 -0.119694 104.748 
42479 3 -0.581088 105.635 
42482 3 -0.0434526 106.478 
42481 3 -1.04248 106.522 
42484 3 -1.50388 107.409 
42485 3 -0.504848 107.365 
42488 3 -1.96527 108.296 
42489 3 -0.966242 108.252 
42480 3 0.417942 105.591 
42483 3 0.955578 106.434 
42486 3 0.494183 107.321 
42487 3 1.49321 107.277 
42490 3 0.0327883 108.208 
42491 3 1.03182 108.164 
42492 3 2.03085 108.12 
ITEM: TIMESTEP
190000
ITEM: NUMBER OF ATOMS
15
ITEM: BOX BOUNDS ff fm pp
-4.1000000000000000e+01 4.1000000000000000e+01
0.0000000000000000e+00 2.0000000000000000e+02
-2.5000000000000000e-01 2.5000000000000000e-01
ITEM: ATOMS id type x y 
42478 3 -0.147215 100.52 
42479 3 -0.59517 101.414 
42482 3 -0.0448726 102.249 
42481 3 -1.04313 102.308 
42484 3 -1.49108 103.202 
42485 3 -0.492828 103.143 
42489 3 -0.940783 104.037 
42488 3 -1.93904 104.096 
42480 3 0.403083 101.355 
42483 3 0.95338 102.19 
42486 3 0.505425 103.084 
42487 3 1.50368 103.025 
42490 3 0.0574695 103.978 
42491 3 1.05572 103.919 
42492 3 2.05397 103.86 
ITEM: TIMESTEP
200000
ITEM: NUMBER OF ATOMS
15
ITEM: BOX BOUNDS ff fm pp
-4.1000000000000000e+01 4.1000000000000000e+01
0.0000000000000000e+00 2.0000000000000000e+02
-2.5000000000000000e-01 2.5000000000000000e-01
ITEM: ATOMS id type x y 
42478 3 -0.205138 96.1073 
42479 3 -0.625162 97.0148 
42481 3 -1.04519 97.9223 
42482 3 -0.0492451 97.8322 
42484 3 -1.46521 98.8297 
42485 3 -0.469269 98.7397 
42488 3 -1.88523 99.7372 
42489 3 -0.889293 99.6472 
42480 3 0.370779 96.9248 
42483 3 0.946696 97.7422 
42486 3 0.526672 98.6497 
42487 3 1.52261 98.5597 
42490 3 0.106648 99.5572 
42491 3 1.10259 99.4672 
42492 3 2.09853 99.3772 
ITEM: TIMESTEP
210000
ITEM: NUMBER OF ATOMS
15
ITEM: BOX BOUNDS ff fm pp
-4.1000000000000000e+01 4.1000000000000000e+01
0.0000000000000000e+00 2.0000000000000000e+02
-2.5000000000000000e-01 2.5000000000000000e-01
ITEM: ATOMS id type x y 
42478 3 -0.284611 91.5845 
42479 3 -0.662265 92.5104 
42481 3 -1.03992 93.4363 
42482 3 -0.0491998 93.3004 
42484 3 -1.41757 94.3622 
42485 3 -0.426854 94.2263 
42488 3 -1.79523 95.2882 
42489 3 -0.804509 95.1522 
42480 3 0.328455 92.3745 
42483 3 0.94152 93.1645 
42486 3 0.563866 94.0904 
42487 3 1.55459 93.9545 
42490 3 0.186211 95.0163 
42491 3 1.17693 94.8804 
42492 3 2.16765 94.7445 
ITEM: TIMESTEP
220000
ITEM: NUMBER OF ATOMS
15
ITEM: BOX BOUNDS ff fm pp
-4.1000000000000000e+01 4.1000000000000000e+01
0.0000000000000000e+00 2.0000000000000000e+02
-2.5000000000000000e-01 2.5000000000000000e-01
ITEM: ATOMS id type x y 
42478 3 -0.438573 86.9586 
42479 3 -0.73597 87.9133 
42481 3 -1.03337 88.868 
42482 3 -0.0578279 88.6482 
42485 3 -0.355224 89.603 
42484 3 -1.33076 89.8228 
42488 3 -1.62816 90.7775 
42489 3 -0.652621 90.5577 
42480 3 0.239569 87.6935 
42483 3 0.91771 88.4284 
42486 3 0.620314 89.3831 
42487 3 1.59585 89.1633 
42491 3 1.29846 90.118 
42492 3 2.27399 89.8982 
42490 3 0.322917 90.3379 
ITEM: TIMESTEP
230000
ITEM: NUMBER OF ATOMS
15
ITEM: BOX BOUNDS ff fm pp
-4.1000000000000000e+01 4.1000000000000000e+01
0.0000000000000000e+00 2.0000000000000000e+02
-2.5000000000000000e-01 2.5000000000000000e-01
ITEM: ATOMS id type x y 
42478 3 -0.730628 82.3271 
42479 3 -0.899362 83.3128 
42482 3 -0.130124 83.9517 
42481 3 -1.0681 84.2984 
42484 3 -1.23683 85.2841 
42485 3 -0.298859 84.9373 
42489 3 -0.467593 85.923 
42488 3 -1.40556 86.2697 
42480 3 0.0386099 82.9661 
42483 3 0.807848 83.605 
42486 3 0.639113 84.5906 
42487 3 1.57709 84.2439 
42491 3 1.40835 85.2296 
42492 3 2.34632 84.8829 
42490 3 0.470379 85.5763 
ITEM: TIMESTEP
240000
ITEM: NUMBER OF ATOMS
15
ITEM: BOX BOUNDS ff fm pp
-4.1000000000000000e+01 4.1000000000000000e+01
0.0000000000000000e+00 2.0000000000000000e+02
-2.5000000000000000e-01 2.5000000000000000e-01
ITEM: ATOMS id type x y 
42478 3 -0.999689 77.6661 
42480 3 -0.163629 78.2147 
42479 3 -1.05678 78.6644 
42482 3 -0.220724 79.213 
42481 3 -1.11388 79.6628 
42485 3 -0.277818 80.2114 
42484 3 -1.17097 80.6611 
42489 3 -0.334913 81.2097 
42488 3 -1.22807 81.6595 
42483 3 0.672431 78.7633 
42487 3 1.50849 79.3119 
42486 3 0.615337 79.7616 
42492 3 2.34455 79.8605 
42491 3 1.4514 80.3102 
42490 3 0.558242 80.76 
ITEM: TIMESTEP
250000
ITEM: NUMBER OF ATOMS
15
ITEM: BOX BOUNDS ff fm pp
-4.1000000000000000e+01 4.1000000000000000e+01
0.0000000000000000e+00 2.0000000000000000e+02
-2.5000000000000000e-01 2.5000000000000000e-01
ITEM: ATOMS id type x y 
42478 3 -1.07569 72.7356 
42480 3 -0.241568 73.2871 
42479 3 -1.1363 73.7337 
42482 3 -0.302174 74.2852 
42481 3 -1.19691 74.7318 
42484 3 -1.25751 75.73 
42485 3 -0.36278 75.2834 
42489 3 -0.423386 76.2815 
42488 3 -1.31812 76.7281 
42483 3 0.592558 73.8386 
42487 3 1.42668 74.3902 
42486 3 0.531952 74.8368 
42492 3 2.26081 74.9417 
42490 3 0.471346 75.8349 
42491 3 1.36608 75.3883 
ITEM: TIMESTEP
260000
ITEM: NUMBER OF ATOMS
15
ITEM: BOX BOUNDS ff fm pp
-4.1000000000000000e+01 4.1000000000000000e+01
0.0000000000000000e+00 2.0000000000000000e+02
-2.5000000000000000e-01 2.5000000000000000e-01
ITEM: ATOMS id type x y 
42478 3 -1.20704 67.7887 
42480 3 -0.376389 68.3455 
42479 3 -1.27391 68.7865 
42481 3 -1.34077 69.7842 
42482 3 -0.443258 69.3432 
42485 3 -0.510126 70.341 
42484 3 -1.40764 70.7819 
42489 3 -0.576994 71.3387 
42488 3 -1.47451 71.7797 
42483 3 0.454259 68.9022 
42487 3 1.28491 69.459 
42486 3 0.38739 69.9 
42492 3 2.11555 70.0158 
42490 3 0.320522 70.8977 
42491 3 1.21804 70.4567 
ITEM: TIMESTEP
270000
ITEM: NUMBER OF ATOMS
15
ITEM: BOX BOUNDS ff fm pp
-4.1000000000000000e+01 4.1000000000000000e+01
0.0000000000000000e+00 2.0000000000000000e+02
-2.5000000000000000e-01 2.5000000000000000e-01
ITEM: ATOMS id type x y 
42489 3 -1.09073 66.4568 
42478 3 -1.22657 62.8539 
42480 3 -0.480383 63.5196 
42479 3 -1.43002 63.8329 
42481 3 -1.63347 64.812 
42482 3 -0.683834 64.4986 
42485 3 -0.887284 65.4777 
42484 3 -1.83692 65.7911 
42490 3 -0.141099 66.1434 
42488 3 -2.04037 66.7701 
42483 3 0.265802 64.1853 
42487 3 1.01199 64.851 
42486 3 0.0623512 65.1644 
42492 3 1.75817 65.5167 
42491 3 0.808536 65.8301 
ITEM: TIMESTEP
280000
ITEM: NUMBER OF ATOMS
15
ITEM: BOX BOUNDS ff fm pp
-4.1000000000000000e+01 4.1000000000000000e+01
0.0000000000000000e+00 2.0000000000000000e+02
-2.5000000000000000e-01 2.5000000000000000e-01
ITEM: ATOMS id type x y 
42478 3 -1.56573 57.8989 
42479 3 -1.77556 58.8766 
42480 3 -0.823902 58.5695 
42482 3 -1.03374 59.5472 
42483 3 -0.0820762 59.24 
42481 3 -1.9854 59.8543 
42486 3 -0.29191 60.2177 
42484 3 -2.19523 60.832 
42485 3 -1.24357 60.5249 
42490 3 -0.501744 61.1954 
42488 3 -2.40506 61.8098 
42489 3 -1.4534 61.5026 
42487 3 0.659749 59.9106 
42492 3 1.40158 60.5811 
42491 3 0.449915 60.8883 
ITEM: TIMESTEP
290000
ITEM: NUMBER OF ATOMS
15
ITEM: BOX BOUNDS ff fm pp
-4.1000000000000000e+01 4.1000000000000000e+01
0.0000000000000000e+00 2.0000000000000000e+02
-2.5000000000000000e-01 2.5000000000000000e-01
ITEM: ATOMS id type x y 
42478 3 -2.12329 52.8546 
42480 3 -1.34671 53.4845 
42479 3 -2.28061 53.8421 
42483 3 -0.570132 54.1145 
42482 3 -1.50403 54.4721 
42481 3 -2.43793 54.8296 
42486 3 -0.727452 55.1021 
42484 3 -2.59525 55.8171 
42485 3 -1.66135 55.4596 
42489 3 -1.81867 56.4471 
42490 3 -0.884772 56.0896 
42488 3 -2.75257 56.8047 
42487 3 0.206446 54.7445 
42491 3 0.0491261 55.732 
42492 3 0.983024 55.3745 
ITEM: TIMESTEP
300000
ITEM: NUMBER OF ATOMS
15
ITEM: BOX BOUNDS ff fm pp
-4.1000000000000000e+01 4.1000000000000000e+01
0.0000000000000000e+00 2.0000000000000000e+02
-2.5000000000000000e-01 2.5000000000000000e-01
ITEM: ATOMS id type x y 
42478 3 -2.52246 47.7458 
42479 3 -2.65497 48.7369 
42480 3 -1.73033 48.3561 
42482 3 -1.86284 49.3472 
42483 3 -0.938198 48.9664 
42481 3 -2.78748 49.7281 
42486 3 -1.07071 49.9576 
42487 3 -0.146069 49.5767 
42485 3 -1.99535 50.3384 
42484 3 -2.91999 50.7192 
42490 3 -1.20322 50.9487 
42491 3 -0.27858 50.5679 
42488 3 -3.0525 51.7104 
42489 3 -2.12786 51.3296 
42492 3 0.64606 50.187 
ITEM: TIMESTEP
310000
ITEM: NUMBER OF ATOMS
15
ITEM: BOX BOUNDS ff fm pp
-4.1000000000000000e+01 4.1000000000000000e+01
0.0000000000000000e+00 2.0000000000000000e+02
-2.5000000000000000e-01 2.5000000000000000e-01
ITEM: ATOMS id type x y 
42478 3 -3.17648 42.9345 
42479 3 -3.2123 43.9338 
42480 3 -2.32893 43.4651 
42483 3 -1.48137 43.9958 
42482 3 -2.36474 44.4645 
42487 3 -0.633815 44.5264 
42481 3 -3.24812 44.9331 
42486 3 -1.51719 44.9951 
42485 3 -2.40056 45.4638 
42491 3 -0.669631 45.5258 
42484 3 -3.28393 45.9325 
42490 3 -1.553 45.9945 
42488 3 -3.31975 46.9318 
42489 3 -2.43638 46.4631 
42492 3 0.213741 45.0571 
ITEM: TIMESTEP
320000
ITEM: NUMBER OF ATOMS
15
ITEM: BOX BOUNDS ff fm pp
-4.1000000000000000e+01 4.1000000000000000e+01
0.0000000000000000e+00 2.0000000000000000e+02
-2.5000000000000000e-01 2.5000000000000000e-01
ITEM: ATOMS id type x y 
42478 3 -4.36919 38.6449 
42480 3 -3.41273 38.9366 
42483 3 -2.45627 39.2284 
42479 3 -4.14368 39.6191 
42487 3 -1.49981 39.5202 
42492 3 -0.543355 39.812 
42482 3 -3.18723 39.9109 
42486 3 -2.23077 40.2027 
42481 3 -3.91818 40.5933 
42485 3 -2.96172 40.8851 
42491 3 -1.27431 40.4944 
42484 3 -3.69267 41.5675 
42490 3 -2.00526 41.1769 
42489 3 -2.73621 41.8593 
42488 3 -3.46717 42.5417 
ITEM: TIMESTEP
330000
ITEM: NUMBER OF ATOMS
15
ITEM: BOX BOUNDS ff fm pp
-4.1000000000000000e+01 4.1000000000000000e+01
0.0000000000000000e+00 2.0000000000000000e+02
-2.5000000000000000e-01 2.5000000000000000e-01
ITEM: ATOMS id type x y 
42478 3 -5.62852 34.6746 
42480 3 -4.63967 34.8234 
42483 3 -3.65081 34.9721 
42479 3 -5.26293 35.6054 
42487 3 -2.66196 35.1209 
42492 3 -1.6731 35.2696 
42482 3 -4.27408 35.7541 
42486 3 -3.28522 35.9029 
42491 3 -2.29637 36.0516 
42481 3 -4.89734 36.5361 
42485 3 -3.90848 36.6849 
42490 3 -2.91963 36.8336 
42484 3 -4.53175 37.4669 
42489 3 -3.54289 37.6156 
42488 3 -4.16616 38.3976 
ITEM: TIMESTEP
340000
ITEM: NUMBER OF ATOMS
15
ITEM: BOX BOUNDS ff fm pp
-4.1000000000000000e+01 4.1000000000000000e+01
0.0000000000000000e+00 2.0000000000000000e+02
-2.5000000000000000e-01 2.5000000000000000e-01
ITEM: ATOMS id type x y 
42478 3 -7.04684 31.4981 
42480 3 -6.04714 31.5218 
42483 3 -5.04745 31.5455 
42487 3 -4.04775 31.5692 
42492 3 -3.04805 31.5929 
42479 3 -6.56753 32.3757 
42482 3 -5.56783 32.3994 
42486 3 -4.56813 32.4231 
42491 3 -3.56844 32.4468 
42481 3 -6.08822 33.2533 
42485 3 -5.08852 33.277 
42490 3 -4.08882 33.3007 
42484 3 -5.6089 34.131 
42489 3 -4.6092 34.1547 
42488 3 -5.12959 35.0086 
ITEM: TIMESTEP
350000
ITEM: NUMBER OF ATOMS
15
ITEM: BOX BOUNDS ff fm pp
-4.1000000000000000e+01 4.1000000000000000e+01
0.0000000000000000e+00 2.0000000000000000e+02
-2.5000000000000000e-01 2.5000000000000000e-01
ITEM: ATOMS id type x y 
42480 3 -7.54688 29.1473 
42483 3 -6.55338 29.0336 
42487 3 -5.55988 28.9199 
42492 3 -4.56639 28.8063 
42478 3 -8.54037 29.2609 
42491 3 -4.96472 29.7235 
42479 3 -7.94521 30.0645 
42482 3 -6.95171 29.9509 
42486 3 -5.95822 29.8372 
42481 3 -7.35004 30.8681 
42485 3 -6.35655 30.7544 
42490 3 -5.36305 30.6408 
42489 3 -5.76138 31.558 
42484 3 -6.75488 31.6717 
42488 3 -6.15971 32.4752 
ITEM: TIMESTEP
360000
ITEM: NUMBER OF ATOMS
15
ITEM: BOX BOUNDS ff fm pp
-4.1000000000000000e+01 4.1000000000000000e+01
0.0000000000000000e+00 2.0000000000000000e+02
-2.5000000000000000e-01 2.5000000000000000e-01
ITEM: ATOMS id type x y 
42492 3 -6.29421 26.612 
42480 3 -9.16124 27.4951 
42483 3 -8.20556 27.2007 
42487 3 -7.24989 26.9064 
42478 3 -10.1169 27.7894 
42486 3 -7.47284 27.8812 
42491 3 -6.51716 27.5869 
42479 3 -9.3842 28.4699 
42482 3 -8.42852 28.1755 
42490 3 -6.74011 28.5617 
42481 3 -8.65147 29.1504 
42485 3 -7.69579 28.856 
42484 3 -7.91875 29.8309 
42489 3 -6.96307 29.5365 
42488 3 -7.18602 30.5114 
ITEM: TIMESTEP
370000
ITEM: NUMBER OF ATOMS
15
ITEM: BOX BOUNDS ff fm pp
-4.1000000000000000e+01 4.1000000000000000e+01
0.0000000000000000e+00 2.0000000000000000e+02
-2.5000000000000000e-01 2.5000000000000000e-01
ITEM: ATOMS id type x y 
42492 3 -7.8744 25.0918 
42487 3 -8.76965 25.5374 
42483 3 -9.6649 25.9829 
42491 3 -7.93621 26.0899 
42478 3 -11.4554 26.8739 
42480 3 -10.5601 26.4284 
42486 3 -8.83146 26.5355 
42479 3 -10.622 27.4265 
42482 3 -9.72671 26.981 
42490 3 -7.99802 27.088 
42481 3 -9.78851 27.9791 
42485 3 -8.89327 27.5335 
42489 3 -8.05983 28.0861 
42484 3 -8.95507 28.5316 
42488 3 -8.12163 29.0842 
ITEM: TIMESTEP
380000
ITEM: NUMBER OF ATOMS
15
ITEM: BOX BOUNDS ff fm pp
-4.1000000000000000e+01 4.1000000000000000e+01
0.0000000000000000e+00 2.0000000000000000e+02
-2.5000000000000000e-01 2.5000000000000000e-01
ITEM: ATOMS id type x y 
42492 3 -9.30472 23.8659 
42487 3 -10.1081 24.4614 
42483 3 -10.9114 25.0569 
42491 3 -9.19072 24.8594 
42480 3 -11.7148 25.6523 
42486 3 -9.99407 25.4549 
42478 3 -12.5181 26.2478 
42482 3 -10.7974 26.0504 
42490 3 -9.07671 25.8529 
42479 3 -11.6008 26.6458 
42485 3 -9.88006 26.4484 
42489 3 -8.96271 26.8464 
42481 3 -10.6834 27.0438 
42484 3 -9.76606 27.4419 
42488 3 -8.8487 27.8399 
ITEM: TIMESTEP
390000
ITEM: NUMBER OF ATOMS
15
ITEM: BOX BOUNDS ff fm pp
-4.1000000000000000e+01 4.1000000000000000e+01
0.0000000000000000e+00 2.0000000000000000e+02
-2.5000000000000000e-01 2.5000000000000000e-01
ITEM: ATOMS id type x y 
42492 3 -10.4058 22.9239 
42487 3 -11.1207 23.6231 
42491 3 -10.1577 23.8926 
42483 3 -11.8355 24.3223 
42480 3 -12.5504 25.0216 
42486 3 -10.8726 24.5918 
42490 3 -9.90959 24.8614 
42478 3 -13.2653 25.7208 
42482 3 -11.5874 25.2911 
42485 3 -10.6245 25.5606 
42479 3 -12.3023 25.9903 
42481 3 -11.3393 26.2598 
42489 3 -9.66149 25.8301 
42484 3 -10.3764 26.5293 
42488 3 -9.41339 26.7988 
ITEM: TIMESTEP
400000
ITEM: NUMBER OF ATOMS
15
ITEM: BOX BOUNDS ff fm pp
-4.1000000000000000e+01 4.1000000000000000e+01
0.0000000000000000e+00 2.0000000000000000e+02
-2.5000000000000000e-01 2.5000000000000000e-01
ITEM: ATOMS id type x y 
42492 3 -11.25 22.1563 
42487 3 -11.8607 22.9481 
42491 3 -10.8696 23.0811 
42483 3 -12.4713 23.74 
42486 3 -11.4802 23.8729 
42480 3 -13.082 24.5318 
42490 3 -10.4891 24.0059 
42482 3 -12.0909 24.6648 
42485 3 -11.0998 24.7977 
42489 3 -10.1087 24.9307 
42478 3 -13.6927 25.3237 
42479 3 -12.7016 25.4567 
42481 3 -11.7105 25.5896 
42484 3 -10.7194 25.7225 
42488 3 -9.72825 25.8555 
ITEM: TIMESTEP
410000
ITEM: NUMBER OF ATOMS
15
ITEM: BOX BOUNDS ff fm pp
-4.1000000000000000e+01 4.1000000000000000e+01
0.0000000000000000e+00 2.0000000000000000e+02
-2.5000000000000000e-01 2.5000000000000000e-01
ITEM: ATOMS id type x y 
42492 3 -11.7556 21.5315 
42487 3 -12.2499 22.4008 
42491 3 -11.25 22.3943 
42483 3 -12.7442 23.2701 
42486 3 -11.7443 23.2635 
42490 3 -10.7443 23.257 
42480 3 -13.2385 24.1393 
42482 3 -12.2386 24.1328 
42485 3 -11.2386 24.1263 
42489 3 -10.2387 24.1198 
42478 3 -13.7328 25.0086 
42479 3 -12.7329 25.0021 
42481 3 -11.7329 24.9955 
42484 3 -10.733 24.989 
42488 3 -9.73301 24.9825 
ITEM: TIMESTEP
420000
ITEM: NUMBER OF ATOMS
15
ITEM: BOX BOUNDS ff fm pp
-4.1000000000000000e+01 4.1000000000000000e+01
0.0000000000000000e+00 2.0000000000000000e+02
-2.5000000000000000e-01 2.5000000000000000e-01
ITEM: ATOMS id type x y 
42492 3 -11.9783 20.9549 
42487 3 -12.352 21.8825 
42491 3 -11.3619 21.7423 
42486 3 -11.7355 22.6698 
42490 3 -10.7454 22.5297 
42483 3 -12.7256 22.81 
42489 3 -10.1289 23.317 
42480 3 -13.0992 23.7376 
42482 3 -12.1091 23.5974 
42485 3 -11.119 23.4572 
42479 3 -12.4827 24.5249 
42481 3 -11.4926 24.3848 
42484 3 -10.5025 24.2446 
42488 3 -9.51243 24.1044 
42478 3 -13.4728 24.6651 
ITEM: TIMESTEP
430000
ITEM: NUMBER OF ATOMS
15
ITEM: BOX BOUNDS ff fm pp
-4.1000000000000000e+01 4.1000000000000000e+01
0.0000000000000000e+00 2.0000000000000000e+02
-2.5000000000000000e-01 2.5000000000000000e-01
ITEM: ATOMS id type x y 
42492 3 -12.1371 20.4228 
42487 3 -12.3757 21.3939 
42491 3 -11.4154 21.115 
42486 3 -11.6539 22.0861 
42490 3 -10.6936 21.8072 
42483 3 -12.6142 22.365 
42485 3 -10.9322 22.7783 
42489 3 -9.97191 22.4993 
42480 3 -12.8528 23.3362 
42482 3 -11.8925 23.0572 
42488 3 -9.25017 23.1915 
42481 3 -11.1707 23.7494 
42484 3 -10.2105 23.4704 
42478 3 -13.0913 24.3073 
42479 3 -12.131 24.0283 
ITEM: TIMESTEP
440000
ITEM: NUMBER OF ATOMS
15
ITEM: BOX BOUNDS ff fm pp
-4.1000000000000000e+01 4.1000000000000000e+01
0.0000000000000000e+00 2.0000000000000000e+02
-2.5000000000000000e-01 2.5000000000000000e-01
ITEM: ATOMS id type x y 
42492 3 -12.1212 19.9299 
42487 3 -12.2819 20.9169 
42491 3 -11.3468 20.5626 
42486 3 -11.5075 21.5496 
42490 3 -10.5724 21.1953 
42483 3 -12.4426 21.9039 
42485 3 -10.7331 22.1823 
42489 3 -9.79799 21.828 
42482 3 -11.6682 22.5366 
42488 3 -9.02357 22.4607 
42480 3 -12.6033 22.8909 
42481 3 -10.8938 23.1693 
42484 3 -9.95868 22.815 
42478 3 -12.764 23.8779 
42479 3 -11.8289 23.5236 
ITEM: TIMESTEP
450000
ITEM: NUMBER OF ATOMS
15
ITEM: BOX BOUNDS ff fm pp
-4.1000000000000000e+01 4.1000000000000000e+01
0.0000000000000000e+00 2.0000000000000000e+02
-2.5000000000000000e-01 2.5000000000000000e-01
ITEM: ATOMS id type x y 
42492 3 -11.9913 19.6065 
42491 3 -11.2199 20.2429 
42487 3 -12.1567 20.5927 
42490 3 -10.4485 20.8793 
42483 3 -12.3221 21.5789 
42486 3 -11.3853 21.2291 
42489 3 -9.67718 21.5156 
42485 3 -10.614 21.8655 
42488 3 -8.90582 22.152 
42480 3 -12.4876 22.5651 
42482 3 -11.5508 22.2153 
42484 3 -9.84262 22.5018 
42479 3 -11.7162 23.2015 
42481 3 -10.7794 22.8517 
42478 3 -12.653 23.5513 
ITEM: TIMESTEP
460000
ITEM: NUMBER OF ATOMS
15
ITEM: BOX BOUNDS ff fm pp
-4.1000000000000000e+01 4.1000000000000000e+01
0.0000000000000000e+00 2.0000000000000000e+02
-2.5000000000000000e-01 2.5000000000000000e-01
ITEM: ATOMS id type x y 
42492 3 -11.9894 19.6154 
42491 3 -11.2235 20.2583 
42487 3 -12.1633 20.6001 
42490 3 -10.4576 20.9013 
42483 3 -12.3371 21.5849 
42486 3 -11.3974 21.2431 
42489 3 -9.69171 21.5443 
42482 3 -11.5712 22.2278 
42485 3 -10.6315 21.8861 
42488 3 -8.92582 22.1872 
42480 3 -12.511 22.5696 
42484 3 -9.86558 22.529 
42479 3 -11.7451 23.2126 
42481 3 -10.8053 22.8708 
42478 3 -12.6848 23.5544 
ITEM: TIMESTEP
470000
ITEM: NUMBER OF ATOMS
15
ITEM: BOX BOUNDS ff fm pp
-4.1000000000000000e+01 4.1000000000000000e+01
0.0000000000000000e+00 2.0000000000000000e+02
-2.5000000000000000e-01 2.5000000000000000e-01
ITEM: ATOMS id type x y 
42492 3 -12.0582 19.7004 
42491 3 -11.2856 20.3353 
42487 3 -12.2217 20.687 
42490 3 -10.5129 20.9701 
42486 3 -11.449 21.3218 
42489 3 -9.74026 21.6049 
42483 3 -12.3851 21.6735 
42485 3 -10.6763 21.9566 
42480 3 -12.5485 22.66 
42482 3 -11.6124 22.3083 
42484 3 -9.90368 22.5914 
42488 3 -8.9676 22.2397 
42479 3 -11.7759 23.2949 
42481 3 -10.8398 22.9431 
42478 3 -12.7119 23.6466 
ITEM: TIMESTEP
480000
ITEM: NUMBER OF ATOMS
15
ITEM: BOX BOUNDS ff fm pp
-4.1000000000000000e+01 4.1000000000000000e+01
0.0000000000000000e+00 2.0000000000000000e+02
-2.5000000000000000e-01 2.5000000000000000e-01
ITEM: ATOMS id type x y 
42492 3 -12.0642 19.6855 
42491 3 -11.2902 20.3187 
42487 3 -12.2256 20.6723 
42490 3 -10.5163 20.952 
42486 3 -11.4516 21.3056 
42489 3 -9.74232 21.5852 
42483 3 -12.387 21.6592 
42485 3 -10.6777 21.9388 
42488 3 -8.96838 22.2185 
42480 3 -12.5484 22.646 
42482 3 -11.6131 22.2924 
42484 3 -9.90375 22.5721 
42479 3 -11.7745 23.2793 
42481 3 -10.8391 22.9257 
42478 3 -12.7099 23.6329 
ITEM: TIMESTEP
490000
ITEM: NUMBER OF ATOMS
15
ITEM: BOX BOUNDS ff fm pp