ITEM: TIMESTEP
0
ITEM: NUMBER OF ATOMS
15
ITEM: BOX BOUNDS ff fm pp
-4.1000000000000000e+01 4.1000000000000000e+01
0.0000000000000000e+00 2.0000000000000000e+02
-2.5000000000000000e-01 2.5000000000000000e-01
ITEM: ATOMS id type x y 
42494 4 -0.5 149.788 
42496 4 -1 150.654 
42499 4 -1.5 151.52 
42500 4 -0.5 151.52 
42503 4 -2 152.386 
42504 4 -1 152.386 
42493 4 0 148.922 
42495 4 0.5 149.788 
42497 4 0 150.654 
42498 4 1 150.654 
42501 4 0.5 151.52 
42502 4 1.5 151.52 
42505 4 0 152.386 
42506 4 1 152.386 
42507 4 2 152.386 
ITEM: TIMESTEP
10000
ITEM: NUMBER OF ATOMS
15
ITEM: BOX BOUNDS ff fm pp
-4.1000000000000000e+01 4.1000000000000000e+01
0.0000000000000000e+00 2.0000000000000000e+02
-2.5000000000000000e-01 2.5000000000000000e-01
ITEM: ATOMS id type x y 
42493 4 -1.19829e-17 148.797 
42494 4 -0.5 149.663 
42496 4 -1 150.529 
42497 4 -1.47754e-17 150.529 
42499 4 -1.5 151.395 
42500 4 -0.5 151.395 
42503 4 -2 152.261 
42504 4 -1 152.261 
42505 4 -1.75678e-17 152.261 
42495 4 0.5 149.663 
42498 4 1 150.529 
42501 4 0.5 151.395 
42502 4 1.5 151.395 
42506 4 1 152.261 
42507 4 2 152.261 
ITEM: TIMESTEP
20000
ITEM: NUMBER OF ATOMS
15
ITEM: BOX BOUNDS ff fm pp
-4.1000000000000000e+01 4.1000000000000000e+01
0.0000000000000000e+00 2.0000000000000000e+02
-2.5000000000000000e-01 2.5000000000000000e-01
ITEM: ATOMS id type x y 
42493 4 -3.82811e-17 148.422 
42494 4 -0.5 149.288 
42496 4 -1 150.154 
42497 4 -5.62428e-17 150.154 
42499 4 -1.5 151.02 
42500 4 -0.5 151.02 
42503 4 -2 151.886 
42504 4 -1 151.886 
42505 4 -7.42044e-17 151.886 
42495 4 0.5 149.288 
42498 4 1 150.154 
42501 4 0.5 151.02 
42502 4 1.5 151.02 
42506 4 1 151.886 
42507 4 2 151.886 
ITEM: TIMESTEP
30000
ITEM: NUMBER OF ATOMS
15
ITEM: BOX BOUNDS ff fm pp
-4.1000000000000000e+01 4.1000000000000000e+01
0.0000000000000000e+00 2.0000000000000000e+02
-2.5000000000000000e-01 2.5000000000000000e-01
ITEM: ATOMS id type x y 
42493 4 -7.84222e-17 147.797 
42494 4 -0.5 148.663 
42496 4 -1 149.529 
42497 4 -1.24133e-16 149.529 
42499 4 -1.5 150.395 
42500 4 -0.5 150.395 
42503 4 -2 151.261 
42504 4 -1 151.261 
42505 4 -1.69844e-16 151.261 
42495 4 0.5 148.663 
42498 4 1 149.529 
42501 4 0.5 150.395 
42502 4 1.5 150.395 
42506 4 1 151.261 
42507 4 2 151.261 
ITEM: TIMESTEP
40000
ITEM: NUMBER OF ATOMS
15
ITEM: BOX BOUNDS ff fm pp
-4.1000000000000000e+01 4.1000000000000000e+01
0.0000000000000000e+00 2.0000000000000000e+02
-2.5000000000000000e-01 2.5000000000000000e-01
ITEM: ATOMS id type x y 
42493 4 -1.55918e-16 146.922 
42494 4 -0.5 147.788 
42496 4 -1 148.654 
42497 4 -2.24325e-16 148.654 
42499 4 -1.5 149.52 
42500 4 -0.5 149.52 
42503 4 -2 150.386 
42504 4 -1 150.386 
42505 4 -2.92731e-16 150.386 
42495 4 0.5 147.788 
42498 4 1 148.654 
42501 4 0.5 149.52 
42502 4 1.5 149.52 
42506 4 1 150.386 
42507 4 2 150.386 
ITEM: TIMESTEP
50000
ITEM: NUMBER OF ATOMS
15
ITEM: BOX BOUNDS ff fm pp
-4.1000000000000000e+01 4.1000000000000000e+01
0.0000000000000000e+00 2.0000000000000000e+02
-2.5000000000000000e-01 2.5000000000000000e-01
ITEM: ATOMS id type x y 
42493 4 -2.51736e-16 145.796 
42494 4 -0.5 146.662 
42496 4 -1 147.528 
42497 4 -3.52058e-16 147.528 
42499 4 -1.5 148.394 
42500 4 -0.5 148.394 
42503 4 -2 149.26 
42504 4 -1 149.26 
42505 4 -4.5238e-16 149.26 
42495 4 0.5 146.662 
42498 4 1 147.528 
42501 4 0.5 148.394 
42502 4 1.5 148.394 
42506 4 1 149.26 
42507 4 2 149.26 
ITEM: TIMESTEP
60000
ITEM: NUMBER OF ATOMS
15
ITEM: BOX BOUNDS ff fm pp
-4.1000000000000000e+01 4.1000000000000000e+01
0.0000000000000000e+00 2.0000000000000000e+02
-2.5000000000000000e-01 2.5000000000000000e-01
ITEM: ATOMS id type x y 
42493 4 -3.82257e-16 144.421 
42494 4 -0.5 145.287 
42496 4 -1 146.153 
42497 4 -5.11427e-16 146.153 
42499 4 -1.5 147.019 
42500 4 -0.5 147.019 
42503 4 -2 147.885 
42504 4 -1 147.885 
42505 4 -6.40596e-16 147.885 
42495 4 0.5 145.287 
42498 4 1 146.153 
42501 4 0.5 147.019 
42502 4 1.5 147.019 
42506 4 1 147.885 
42507 4 2 147.885 
ITEM: TIMESTEP
70000
ITEM: NUMBER OF ATOMS
15
ITEM: BOX BOUNDS ff fm pp
-4.1000000000000000e+01 4.1000000000000000e+01
0.0000000000000000e+00 2.0000000000000000e+02
-2.5000000000000000e-01 2.5000000000000000e-01
ITEM: ATOMS id type x y 
42493 4 -5.87108e-16 142.796 
42494 4 -0.5 143.662 
42496 4 -1 144.528 
42497 4 -7.12338e-16 144.528 
42499 4 -1.5 145.394 
42500 4 -0.5 145.394 
42503 4 -2 146.26 
42504 4 -1 146.26 
42505 4 -8.37568e-16 146.26 
42495 4 0.5 143.662 
42498 4 1 144.528 
42501 4 0.5 145.394 
42502 4 1.5 145.394 
42506 4 1 146.26 
42507 4 2 146.26 
ITEM: TIMESTEP
80000
ITEM: NUMBER OF ATOMS
15
ITEM: BOX BOUNDS ff fm pp
-4.1000000000000000e+01 4.1000000000000000e+01
0.0000000000000000e+00 2.0000000000000000e+02
-2.5000000000000000e-01 2.5000000000000000e-01
ITEM: ATOMS id type x y 
42493 4 -8.5987e-16 140.921 
42494 4 -0.5 141.787 
42496 4 -1 142.653 
42497 4 -9.53187e-16 142.653 
42499 4 -1.5 143.519 
42500 4 -0.5 143.519 
42503 4 -2 144.385 
42504 4 -1 144.385 
42505 4 -1.0465e-15 144.385 
42495 4 0.5 141.787 
42498 4 1 142.653 
42501 4 0.5 143.519 
42502 4 1.5 143.519 
42506 4 1 144.385 
42507 4 2 144.385 
ITEM: TIMESTEP
90000
ITEM: NUMBER OF ATOMS
15
ITEM: BOX BOUNDS ff fm pp
-4.1000000000000000e+01 4.1000000000000000e+01
0.0000000000000000e+00 2.0000000000000000e+02
-2.5000000000000000e-01 2.5000000000000000e-01
ITEM: ATOMS id type x y 
42493 4 -1.15668e-15 138.796 
42494 4 -0.5 139.662 
42496 4 -1 140.528 
42497 4 -1.22301e-15 140.528 
42499 4 -1.5 141.394 
42500 4 -0.5 141.394 
42503 4 -2 142.26 
42504 4 -1 142.26 
42505 4 -1.28933e-15 142.26 
42495 4 0.5 139.662 
42498 4 1 140.528 
42501 4 0.5 141.394 
42502 4 1.5 141.394 
42506 4 1 142.26 
42507 4 2 142.26 
ITEM: TIMESTEP
100000
ITEM: NUMBER OF ATOMS
15
ITEM: BOX BOUNDS ff fm pp
-4.1000000000000000e+01 4.1000000000000000e+01
0.0000000000000000e+00 2.0000000000000000e+02
-2.5000000000000000e-01 2.5000000000000000e-01
ITEM: ATOMS id type x y 
42493 4 -1.46931e-15 136.421 
42494 4 -0.5 137.287 
42496 4 -1 138.153 
42497 4 -1.51975e-15 138.153 
42499 4 -1.5 139.019 
42500 4 -0.5 139.019 
42503 4 -2 139.885 
42504 4 -1 139.885 
42505 4 -1.57018e-15 139.885 
42495 4 0.5 137.287 
42498 4 1 138.153 
42501 4 0.5 139.019 
42502 4 1.5 139.019 
42506 4 1 139.885 
42507 4 2 139.885 
ITEM: TIMESTEP
110000
ITEM: NUMBER OF ATOMS
15
ITEM: BOX BOUNDS ff fm pp
-4.1000000000000000e+01 4.1000000000000000e+01
0.0000000000000000e+00 2.0000000000000000e+02
-2.5000000000000000e-01 2.5000000000000000e-01
ITEM: ATOMS id type x y 
42493 4 -1.81514e-15 133.796 
42494 4 -0.5 134.662 
42496 4 -1 135.528 
42497 4 -1.84774e-15 135.528 
42499 4 -1.5 136.394 
42500 4 -0.5 136.394 
42503 4 -2 137.26 
42504 4 -1 137.26 
42505 4 -1.88035e-15 137.26 
42495 4 0.5 134.662 
42498 4 1 135.528 
42501 4 0.5 136.394 
42502 4 1.5 136.394 
42506 4 1 137.26 
42507 4 2 137.26 
ITEM: TIMESTEP
120000
ITEM: NUMBER OF ATOMS
15
ITEM: BOX BOUNDS ff fm pp
-4.1000000000000000e+01 4.1000000000000000e+01
0.0000000000000000e+00 2.0000000000000000e+02
-2.5000000000000000e-01 2.5000000000000000e-01
ITEM: ATOMS id type x y 
42493 4 -2.19933e-15 130.921 
42494 4 -0.5 131.787 
42496 4 -1 132.653 
42497 4 -2.2083e-15 132.653 
42499 4 -1.5 133.519 
42500 4 -0.5 133.519 
42503 4 -2 134.385 
42504 4 -1 134.385 
42505 4 -2.21726e-15 134.385 
42495 4 0.5 131.787 
42498 4 1 132.653 
42501 4 0.5 133.519 
42502 4 1.5 133.519 
42506 4 1 134.385 
42507 4 2 134.385 
ITEM: TIMESTEP
130000
ITEM: NUMBER OF ATOMS
15
ITEM: BOX BOUNDS ff fm pp
-4.1000000000000000e+01 4.1000000000000000e+01
0.0000000000000000e+00 2.0000000000000000e+02
-2.5000000000000000e-01 2.5000000000000000e-01
ITEM: ATOMS id type x y 
42493 4 -2.60689e-15 127.796 
42494 4 -0.5 128.662 
42496 4 -1 129.528 
42497 4 -2.59765e-15 129.528 
42499 4 -1.5 130.394 
42500 4 -0.5 130.394 
42503 4 -2 131.26 
42504 4 -1 131.26 
42505 4 -2.58841e-15 131.26 
42507 4 2 131.26 
42495 4 0.5 128.662 
42498 4 1 129.528 
42501 4 0.5 130.394 
42502 4 1.5 130.394 
42506 4 1 131.26 
ITEM: TIMESTEP
140000
ITEM: NUMBER OF ATOMS
15
ITEM: BOX BOUNDS ff fm pp
-4.1000000000000000e+01 4.1000000000000000e+01
0.0000000000000000e+00 2.0000000000000000e+02
-2.5000000000000000e-01 2.5000000000000000e-01
ITEM: ATOMS id type x y 
42493 4 -3.06911e-15 124.42 
42494 4 -0.5 125.286 
42496 4 -1 126.152 
42497 4 -3.02364e-15 126.152 
42499 4 -1.5 127.018 
42500 4 -0.5 127.018 
42503 4 -2 127.884 
42504 4 -1 127.884 
42505 4 -2.97817e-15 127.884 
42495 4 0.5 125.286 
42498 4 1 126.152 
42501 4 0.5 127.018 
42502 4 1.5 127.018 
42506 4 1 127.884 
42507 4 2 127.884 
ITEM: TIMESTEP
150000
ITEM: NUMBER OF ATOMS
15
ITEM: BOX BOUNDS ff fm pp
-4.1000000000000000e+01 4.1000000000000000e+01
0.0000000000000000e+00 2.0000000000000000e+02
-2.5000000000000000e-01 2.5000000000000000e-01
ITEM: ATOMS id type x y 
42494 4 -0.497648 121.778 
42496 4 -0.998542 122.644 
42499 4 -1.49944 123.509 
42500 4 -0.499436 123.51 
42503 4 -2.00033 124.375 
42504 4 -1.00033 124.376 
42505 4 -0.000330357 124.377 
42493 4 0.00324555 120.913 
42495 4 0.502351 121.779 
42497 4 0.0014576 122.645 
42498 4 1.00146 122.646 
42501 4 0.500563 123.511 
42502 4 1.50056 123.512 
42506 4 0.999669 124.378 
42507 4 1.99967 124.379 
ITEM: TIMESTEP
160000
ITEM: NUMBER OF ATOMS
15
ITEM: BOX BOUNDS ff fm pp
-4.1000000000000000e+01 4.1000000000000000e+01
0.0000000000000000e+00 2.0000000000000000e+02
-2.5000000000000000e-01 2.5000000000000000e-01
ITEM: ATOMS id type x y 
42494 4 -0.493098 118.055 
42496 4 -0.995633 118.919 
42499 4 -1.49817 119.784 
42500 4 -0.498171 119.787 
42503 4 -2.0007 120.649 
42504 4 -1.00071 120.651 
42505 4 -0.000709829 120.654 
42493 4 0.0094362 117.19 
42495 4 0.506898 118.058 
42497 4 0.00436319 118.922 
42498 4 1.00436 118.925 
42501 4 0.501825 119.79 
42502 4 1.50182 119.793 
42506 4 0.999286 120.657 
42507 4 1.99928 120.66 
ITEM: TIMESTEP
170000
ITEM: NUMBER OF ATOMS
15
ITEM: BOX BOUNDS ff fm pp
-4.1000000000000000e+01 4.1000000000000000e+01
0.0000000000000000e+00 2.0000000000000000e+02
-2.5000000000000000e-01 2.5000000000000000e-01
ITEM: ATOMS id type x y 
42494 4 -0.483031 114.139 
42496 4 -0.989407 115.001 
42499 4 -1.49578 115.864 
42500 4 -0.495809 115.871 
42503 4 -2.00216 116.726 
42504 4 -1.00218 116.733 
42505 4 -0.00221191 116.741 
42493 4 0.0233442 113.277 
42495 4 0.516942 114.146 
42497 4 0.0105661 115.009 
42498 4 1.01054 115.016 
42501 4 0.504164 115.878 
42502 4 1.50414 115.886 
42506 4 0.997761 116.748 
42507 4 1.99773 116.755 
ITEM: TIMESTEP
180000
ITEM: NUMBER OF ATOMS
15
ITEM: BOX BOUNDS ff fm pp
-4.1000000000000000e+01 4.1000000000000000e+01
0.0000000000000000e+00 2.0000000000000000e+02
-2.5000000000000000e-01 2.5000000000000000e-01
ITEM: ATOMS id type x y 
42494 4 -0.467821 110.064 
42496 4 -0.980029 110.923 
42499 4 -1.49224 111.782 
42500 4 -0.492338 111.796 
42503 4 -2.00445 112.64 
42504 4 -1.00455 112.654 
42505 4 -0.00464648 112.669 
42493 4 0.0443871 109.205 
42495 4 0.532079 110.078 
42497 4 0.0198703 110.937 
42498 4 1.01977 110.951 
42501 4 0.507562 111.81 
42502 4 1.50746 111.824 
42506 4 0.995253 112.683 
42507 4 1.99515 112.697 
ITEM: TIMESTEP
190000
ITEM: NUMBER OF ATOMS
15
ITEM: BOX BOUNDS ff fm pp
-4.1000000000000000e+01 4.1000000000000000e+01
0.0000000000000000e+00 2.0000000000000000e+02
-2.5000000000000000e-01 2.5000000000000000e-01
ITEM: ATOMS id type x y 
42494 4 -0.44698 105.814 
42496 4 -0.966628 106.669 
42499 4 -1.48628 107.523 
42500 4 -0.486538 107.546 
42503 4 -2.00593 108.377 
42504 4 -1.00619 108.4 
42505 4 -0.0064472 108.423 
42493 4 0.0726685 104.96 
42495 4 0.552759 105.837 
42497 4 0.0331107 106.692 
42498 4 1.03285 106.714 
42501 4 0.513201 107.569 
42502 4 1.51294 107.592 
42506 4 0.993292 108.446 
42507 4 1.99303 108.469 
ITEM: TIMESTEP
200000
ITEM: NUMBER OF ATOMS
15
ITEM: BOX BOUNDS ff fm pp
-4.1000000000000000e+01 4.1000000000000000e+01
0.0000000000000000e+00 2.0000000000000000e+02
-2.5000000000000000e-01 2.5000000000000000e-01
ITEM: ATOMS id type x y 
42494 4 -0.40851 101.397 
42496 4 -0.944557 102.241 
42499 4 -1.4806 103.085 
42500 4 -0.481492 103.127 
42503 4 -2.01665 103.929 
42504 4 -1.01754 103.972 
42505 4 -0.0184276 104.014 
42493 4 0.127538 100.553 
42495 4 0.590602 101.439 
42497 4 0.054555 102.283 
42498 4 1.05367 102.325 
42501 4 0.51762 103.169 
42502 4 1.51673 103.212 
42506 4 0.980684 104.056 
42507 4 1.9798 104.098 
ITEM: TIMESTEP
210000
ITEM: NUMBER OF ATOMS
15
ITEM: BOX BOUNDS ff fm pp
-4.1000000000000000e+01 4.1000000000000000e+01
0.0000000000000000e+00 2.0000000000000000e+02
-2.5000000000000000e-01 2.5000000000000000e-01
ITEM: ATOMS id type x y 
42494 4 -0.34998 96.8344 
42496 4 -0.913304 97.6606 
42499 4 -1.47663 98.4868 
42500 4 -0.479424 98.5615 
42503 4 -2.03995 99.313 
42504 4 -1.04275 99.3878 
42505 4 -0.0455443 99.4625 
42493 4 0.213344 96.0082 
42495 4 0.647223 96.9091 
42497 4 0.0838997 97.7353 
42498 4 1.0811 97.8101 
42501 4 0.517779 98.6363 
42502 4 1.51498 98.711 
42506 4 0.951659 99.5372 
42507 4 1.94886 99.612 
ITEM: TIMESTEP
220000
ITEM: NUMBER OF ATOMS
15
ITEM: BOX BOUNDS ff fm pp
-4.1000000000000000e+01 4.1000000000000000e+01
0.0000000000000000e+00 2.0000000000000000e+02
-2.5000000000000000e-01 2.5000000000000000e-01
ITEM: ATOMS id type x y 
42494 4 -0.246817 92.1246 
42496 4 -0.85822 92.9159 
42499 4 -1.46962 93.7072 
42500 4 -0.478621 93.841 
42503 4 -2.08103 94.4985 
42504 4 -1.09002 94.6323 
42505 4 -0.099021 94.7661 
42493 4 0.364587 91.3333 
42495 4 0.744187 92.2584 
42497 4 0.132783 93.0497 
42498 4 1.12379 93.1836 
42501 4 0.512383 93.9748 
42502 4 1.50339 94.1087 
42506 4 0.891983 94.9 
42507 4 1.88299 95.0338 
ITEM: TIMESTEP
230000
ITEM: NUMBER OF ATOMS
15
ITEM: BOX BOUNDS ff fm pp
-4.1000000000000000e+01 4.1000000000000000e+01
0.0000000000000000e+00 2.0000000000000000e+02
-2.5000000000000000e-01 2.5000000000000000e-01
ITEM: ATOMS id type x y 
42494 4 -0.128098 87.2996 
42496 4 -0.799011 88.0412 
42499 4 -1.46992 88.7827 
42500 4 -0.492279 88.9929 
42503 4 -2.14084 89.5242 
42504 4 -1.16319 89.7344 
42505 4 -0.185547 89.9447 
42493 4 0.542814 86.5581 
42495 4 0.849546 87.5099 
42497 4 0.178634 88.2514 
42498 4 1.15628 88.4617 
42501 4 0.485365 89.2032 
42502 4 1.46301 89.4135 
42506 4 0.792097 90.155 
42507 4 1.76974 90.3652 
ITEM: TIMESTEP
240000
ITEM: NUMBER OF ATOMS
15
ITEM: BOX BOUNDS ff fm pp
-4.1000000000000000e+01 4.1000000000000000e+01
0.0000000000000000e+00 2.0000000000000000e+02
-2.5000000000000000e-01 2.5000000000000000e-01
ITEM: ATOMS id type x y 
42494 4 -0.0132541 82.4392 
42496 4 -0.761563 83.1026 
42499 4 -1.50987 83.7659 
42500 4 -0.561243 84.0823 
42503 4 -2.25818 84.4292 
42504 4 -1.30955 84.7456 
42505 4 -0.360923 85.062 
42493 4 0.735055 81.7759 
42495 4 0.935375 82.7556 
42497 4 0.187066 83.419 
42498 4 1.13569 83.7353 
42501 4 0.387386 84.3987 
42502 4 1.33601 84.715 
42506 4 0.587706 85.3784 
42507 4 1.53633 85.6948 
ITEM: TIMESTEP
250000
ITEM: NUMBER OF ATOMS
15
ITEM: BOX BOUNDS ff fm pp
-4.1000000000000000e+01 4.1000000000000000e+01
0.0000000000000000e+00 2.0000000000000000e+02
-2.5000000000000000e-01 2.5000000000000000e-01
ITEM: ATOMS id type x y 
42496 4 -0.626174 78.0205 
42499 4 -1.46149 78.5702 
42503 4 -2.29681 79.12 
42500 4 -0.567732 79.0188 
42504 4 -1.40305 79.5685 
42505 4 -0.509291 80.017 
42493 4 1.04447 76.9211 
42494 4 0.209146 77.4708 
42495 4 1.10291 77.9193 
42497 4 0.267587 78.4691 
42498 4 1.16135 78.9176 
42501 4 0.326028 79.4673 
42502 4 1.21979 79.9159 
42506 4 0.38447 80.4656 
42507 4 1.27823 80.9141 
ITEM: TIMESTEP
260000
ITEM: NUMBER OF ATOMS
15
ITEM: BOX BOUNDS ff fm pp
-4.1000000000000000e+01 4.1000000000000000e+01
0.0000000000000000e+00 2.0000000000000000e+02
-2.5000000000000000e-01 2.5000000000000000e-01
ITEM: ATOMS id type x y 
42496 4 -0.491328 72.9426 
42503 4 -2.24627 73.9018 
42499 4 -1.3688 73.4222 
42500 4 -0.514707 73.9423 
42504 4 -1.39218 74.4219 
42505 4 -0.538086 74.942 
42493 4 1.26362 71.9834 
42494 4 0.386144 72.463 
42495 4 1.24024 72.9831 
42497 4 0.362765 73.4627 
42498 4 1.21686 73.9828 
42501 4 0.339385 74.4624 
42502 4 1.19348 74.9825 
42506 4 0.316006 75.4621 
42507 4 1.1701 75.9823 
ITEM: TIMESTEP
270000
ITEM: NUMBER OF ATOMS
15
ITEM: BOX BOUNDS ff fm pp
-4.1000000000000000e+01 4.1000000000000000e+01
0.0000000000000000e+00 2.0000000000000000e+02
-2.5000000000000000e-01 2.5000000000000000e-01
ITEM: ATOMS id type x y 
42496 4 -0.411066 67.7942 
42499 4 -1.27721 68.2939 
42503 4 -2.14336 68.7937 
42500 4 -0.41132 68.7942 
42504 4 -1.27747 69.2939 
42505 4 -0.411573 69.7941 
42494 4 0.45508 67.2944 
42493 4 1.32123 66.7947 
42495 4 1.32097 67.7947 
42497 4 0.454826 68.2944 
42498 4 1.32072 68.7947 
42501 4 0.454573 69.2944 
42502 4 1.32046 69.7946 
42506 4 0.454319 70.2944 
42507 4 1.32021 70.7946 
ITEM: TIMESTEP
280000
ITEM: NUMBER OF ATOMS
15
ITEM: BOX BOUNDS ff fm pp
-4.1000000000000000e+01 4.1000000000000000e+01
0.0000000000000000e+00 2.0000000000000000e+02
-2.5000000000000000e-01 2.5000000000000000e-01
ITEM: ATOMS id type x y 
42496 4 -0.439413 62.6043 
42499 4 -1.2917 63.1274 
42503 4 -2.14399 63.6504 
42500 4 -0.412571 63.6039 
42504 4 -1.26486 64.127 
42505 4 -0.385729 64.6036 
42493 4 1.26516 61.5583 
42494 4 0.412874 62.0813 
42495 4 1.292 62.5579 
42497 4 0.439716 63.0809 
42498 4 1.31884 63.5575 
42501 4 0.466558 64.0805 
42502 4 1.34569 64.5571 
42506 4 0.4934 65.0802 
42507 4 1.37253 65.5567 
ITEM: TIMESTEP
290000
ITEM: NUMBER OF ATOMS
15
ITEM: BOX BOUNDS ff fm pp
-4.1000000000000000e+01 4.1000000000000000e+01
0.0000000000000000e+00 2.0000000000000000e+02
-2.5000000000000000e-01 2.5000000000000000e-01
ITEM: ATOMS id type x y 
42496 4 -0.639322 57.5775 
42499 4 -1.47264 58.1303 
42503 4 -2.30597 58.683 
42500 4 -0.577264 58.5756 
42504 4 -1.41059 59.1283 
42505 4 -0.515207 59.5736 
42493 4 1.02732 56.472 
42494 4 0.194001 57.0248 
42495 4 1.08938 57.4701 
42497 4 0.256058 58.0228 
42498 4 1.15144 58.4681 
42501 4 0.318116 59.0209 
42502 4 1.2135 59.4662 
42506 4 0.380173 60.0189 
42507 4 1.27555 60.4642 
ITEM: TIMESTEP
300000
ITEM: NUMBER OF ATOMS
15
ITEM: BOX BOUNDS ff fm pp
-4.1000000000000000e+01 4.1000000000000000e+01
0.0000000000000000e+00 2.0000000000000000e+02
-2.5000000000000000e-01 2.5000000000000000e-01
ITEM: ATOMS id type x y 
42494 4 -0.128894 51.7431 
42496 4 -0.92805 52.3442 
42499 4 -1.72721 52.9453 
42503 4 -2.52636 53.5464 
42500 4 -0.807047 53.3368 
42504 4 -1.6062 53.9379 
42505 4 -0.686043 54.3295 
42497 4 -0.00789054 52.7357 
42493 4 0.670262 51.142 
42495 4 0.791266 52.1347 
42498 4 0.912269 53.1273 
42501 4 0.113113 53.7284 
42502 4 1.03327 54.1199 
42506 4 0.234117 54.721 
42507 4 1.15428 55.1125 
ITEM: TIMESTEP
310000
ITEM: NUMBER OF ATOMS
15
ITEM: BOX BOUNDS ff fm pp
-4.1000000000000000e+01 4.1000000000000000e+01
0.0000000000000000e+00 2.0000000000000000e+02
-2.5000000000000000e-01 2.5000000000000000e-01
ITEM: ATOMS id type x y 
42494 4 -0.430837 46.8067 
42496 4 -1.19599 47.4505 
42499 4 -1.96113 48.0944 
42497 4 -0.255823 47.7913 
42503 4 -2.72628 48.7382 
42500 4 -1.02097 48.4351 
42501 4 -0.0808089 48.7758 
42504 4 -1.78612 49.0789 
42505 4 -0.845958 49.4196 
42493 4 0.334313 46.1629 
42495 4 0.509327 47.1475 
42498 4 0.68434 48.132 
42502 4 0.859354 49.1165 
42506 4 0.094205 49.7604 
42507 4 1.03437 50.1011 
ITEM: TIMESTEP
320000
ITEM: NUMBER OF ATOMS
15
ITEM: BOX BOUNDS ff fm pp
-4.1000000000000000e+01 4.1000000000000000e+01
0.0000000000000000e+00 2.0000000000000000e+02
-2.5000000000000000e-01 2.5000000000000000e-01
ITEM: ATOMS id type x y 
42494 4 -0.53636 41.784 
42496 4 -1.24694 42.4875 
42497 4 -0.282303 42.7511 
42499 4 -1.95752 43.1911 
42503 4 -2.6681 43.8947 
42500 4 -0.992884 43.4547 
42501 4 -0.0282468 43.7183 
42504 4 -1.70346 44.1583 
42505 4 -0.738827 44.4219 
42493 4 0.174221 41.0804 
42495 4 0.428277 42.0475 
42498 4 0.682334 43.0147 
42502 4 0.93639 43.9819 
42506 4 0.22581 44.6855 
42507 4 1.19045 44.949 
ITEM: TIMESTEP
330000
ITEM: NUMBER OF ATOMS
15
ITEM: BOX BOUNDS ff fm pp
-4.1000000000000000e+01 4.1000000000000000e+01
0.0000000000000000e+00 2.0000000000000000e+02
-2.5000000000000000e-01 2.5000000000000000e-01
ITEM: ATOMS id type x y 
42494 4 -0.610991 36.7124 
42496 4 -1.22573 37.5011 
42497 4 -0.235297 37.6391 
42499 4 -1.84046 38.2898 
42500 4 -0.850032 38.4278 
42503 4 -2.4552 39.0785 
42504 4 -1.46477 39.2165 
42505 4 -0.474338 39.3545 
42493 4 0.00374412 35.9237 
42495 4 0.379439 36.8504 
42498 4 0.755134 37.7771 
42501 4 0.140398 38.5658 
42502 4 1.13083 38.7038 
42506 4 0.516093 39.4925 
42507 4 1.50652 39.6305 
ITEM: TIMESTEP
340000
ITEM: NUMBER OF ATOMS
15
ITEM: BOX BOUNDS ff fm pp
-4.1000000000000000e+01 4.1000000000000000e+01
0.0000000000000000e+00 2.0000000000000000e+02
-2.5000000000000000e-01 2.5000000000000000e-01
ITEM: ATOMS id type x y 
42493 4 -0.123554 30.8665 
42494 4 -0.692727 31.6887 
42496 4 -1.2619 32.5109 
42497 4 -0.265253 32.5927 
42499 4 -1.83107 33.3331 
42500 4 -0.834426 33.4149 
42503 4 -2.40025 34.1552 
42504 4 -1.4036 34.2371 
42505 4 -0.406952 34.3189 
42495 4 0.303921 31.7705 
42498 4 0.731395 32.6745 
42501 4 0.162221 33.4967 
42502 4 1.15887 33.5785 
42506 4 0.589696 34.4007 
42507 4 1.58634 34.4825 
ITEM: TIMESTEP
350000
ITEM: NUMBER OF ATOMS
15
ITEM: BOX BOUNDS ff fm pp
-4.1000000000000000e+01 4.1000000000000000e+01
0.0000000000000000e+00 2.0000000000000000e+02
-2.5000000000000000e-01 2.5000000000000000e-01
ITEM: ATOMS id type x y 
42493 4 -0.266153 26.2 
42494 4 -0.870351 26.9968 
42496 4 -1.47455 27.7937 
42497 4 -0.482372 27.9185 
42499 4 -2.07875 28.5905 
42500 4 -1.08657 28.7153 
42501 4 -0.0943924 28.8401 
42503 4 -2.68294 29.3873 
42504 4 -1.69077 29.5121 
42505 4 -0.69859 29.6369 
42495 4 0.121826 27.1217 
42498 4 0.509806 28.0433 
42502 4 0.897785 28.965 
42506 4 0.293587 29.7618 
42507 4 1.28576 29.8866 
ITEM: TIMESTEP
360000
ITEM: NUMBER OF ATOMS
15
ITEM: BOX BOUNDS ff fm pp
-4.1000000000000000e+01 4.1000000000000000e+01
0.0000000000000000e+00 2.0000000000000000e+02
-2.5000000000000000e-01 2.5000000000000000e-01
ITEM: ATOMS id type x y 
42493 4 -0.452297 21.6581 
42494 4 -1.10043 22.4196 
42495 4 -0.116859 22.6001 
42496 4 -1.74856 23.1811 
42497 4 -0.764989 23.3616 
42499 4 -2.39669 23.9426 
42500 4 -1.41312 24.1231 
42503 4 -3.04482 24.7041 
42501 4 -0.429552 24.3036 
42504 4 -2.06125 24.8846 
42505 4 -1.07768 25.0651 
42506 4 -0.0941141 25.2457 
42498 4 0.218578 23.5421 
42502 4 0.554016 24.4842 
42507 4 0.889454 25.4262 
ITEM: TIMESTEP
370000
ITEM: NUMBER OF ATOMS
15
ITEM: BOX BOUNDS ff fm pp
-4.1000000000000000e+01 4.1000000000000000e+01
0.0000000000000000e+00 2.0000000000000000e+02
-2.5000000000000000e-01 2.5000000000000000e-01
ITEM: ATOMS id type x y 
42493 4 -0.592958 17.5269 
42494 4 -1.24412 18.2859 
42495 4 -0.261278 18.4703 
42496 4 -1.89528 19.0448 
42497 4 -0.912438 19.2292 
42499 4 -2.54644 19.8037 
42500 4 -1.5636 19.9881 
42503 4 -3.1976 20.5626 
42501 4 -0.580758 20.1726 
42504 4 -2.21476 20.747 
42505 4 -1.23192 20.9315 
42506 4 -0.249078 21.116 
42498 4 0.0704024 19.4137 
42502 4 0.402082 20.3571 
42507 4 0.733762 21.3004 
ITEM: TIMESTEP
380000
ITEM: NUMBER OF ATOMS
15
ITEM: BOX BOUNDS ff fm pp
-4.1000000000000000e+01 4.1000000000000000e+01
0.0000000000000000e+00 2.0000000000000000e+02
-2.5000000000000000e-01 2.5000000000000000e-01
ITEM: ATOMS id type x y 
42493 4 -0.771162 13.9843 
42494 4 -1.47875 14.6909 
42495 4 -0.512997 14.9504 
42496 4 -2.18633 15.3975 
42497 4 -1.22058 15.657 
42499 4 -2.89391 16.1041 
42500 4 -1.92816 16.3636 
42498 4 -0.254831 15.9165 
42503 4 -3.6015 16.8107 
42504 4 -2.63575 17.0702 
42501 4 -0.962414 16.6231 
42505 4 -1.67 17.3297 
42506 4 -0.704249 17.5891 
42502 4 0.0033344 16.8825 
42507 4 0.2615 17.8486 
ITEM: TIMESTEP
390000
ITEM: NUMBER OF ATOMS
15
ITEM: BOX BOUNDS ff fm pp
-4.1000000000000000e+01 4.1000000000000000e+01
0.0000000000000000e+00 2.0000000000000000e+02
-2.5000000000000000e-01 2.5000000000000000e-01
ITEM: ATOMS id type x y 
42493 4 -1.12702 10.8494 
42494 4 -1.85435 11.5357 
42496 4 -2.58167 12.2219 
42495 4 -0.896338 11.8224 
42499 4 -3.30899 12.9082 
42497 4 -1.62366 12.5087 
42498 4 -0.665654 12.7954 
42500 4 -2.35098 13.1949 
42501 4 -1.39298 13.4817 
42503 4 -4.03632 13.5944 
42504 4 -3.07831 13.8812 
42505 4 -2.1203 14.1679 
42502 4 -0.43497 13.7684 
42506 4 -1.16229 14.4547 
42507 4 -0.204286 14.7414 
ITEM: TIMESTEP
400000
ITEM: NUMBER OF ATOMS
15
ITEM: BOX BOUNDS ff fm pp
-4.1000000000000000e+01 4.1000000000000000e+01
0.0000000000000000e+00 2.0000000000000000e+02
-2.5000000000000000e-01 2.5000000000000000e-01
ITEM: ATOMS id type x y 
42493 4 -1.45091 8.31056 
42494 4 -2.18102 8.99386 
42495 4 -1.22418 9.2845 
42496 4 -2.91113 9.67715 
42497 4 -1.95429 9.96779 
42499 4 -3.64124 10.3604 
42498 4 -0.997462 10.2584 
42503 4 -4.37135 11.0437 
42500 4 -2.68441 10.6511 
42501 4 -1.72757 10.9417 
42504 4 -3.41452 11.3344 
42505 4 -2.45768 11.625 
42502 4 -0.77074 11.2324 
42506 4 -1.50085 11.9157 
42507 4 -0.544019 12.2063 
ITEM: TIMESTEP
410000
ITEM: NUMBER OF ATOMS
15
ITEM: BOX BOUNDS ff fm pp
-4.1000000000000000e+01 4.1000000000000000e+01
0.0000000000000000e+00 2.0000000000000000e+02
-2.5000000000000000e-01 2.5000000000000000e-01
ITEM: ATOMS id type x y 
42493 4 -1.50009 6.3461 
42494 4 -2.30266 6.94262 
42496 4 -3.10523 7.53914 
42495 4 -1.38474 7.3394 
42499 4 -3.90779 8.13567 
42497 4 -2.18731 7.93592 
42503 4 -4.71036 8.73219 
42500 4 -2.98988 8.53245 
42498 4 -1.2694 8.3327 
42504 4 -3.79245 9.12897 
42501 4 -2.07197 8.92923 
42502 4 -1.15405 9.32601 
42505 4 -2.87453 9.52575 
42506 4 -1.95662 9.92253 
42507 4 -1.03871 10.3193 
ITEM: TIMESTEP
420000
ITEM: NUMBER OF ATOMS
15
ITEM: BOX BOUNDS ff fm pp
-4.1000000000000000e+01 4.1000000000000000e+01
0.0000000000000000e+00 2.0000000000000000e+02
-2.5000000000000000e-01 2.5000000000000000e-01
ITEM: ATOMS id type x y 
42493 4 -1.78902 4.76396 
42494 4 -2.59837 5.35125 
42495 4 -1.68506 5.75851 
42496 4 -3.40771 5.93854 
42497 4 -2.4944 6.34581 
42499 4 -4.21706 6.52584 
42500 4 -3.30375 6.9331 
42498 4 -1.58109 6.75307 
42503 4 -5.02641 7.11313 
42504 4 -4.1131 7.52039 
42501 4 -2.39044 7.34037 
42505 4 -3.19979 7.92766 
42502 4 -1.47713 7.74763 
42506 4 -2.28648 8.33493 
42507 4 -1.37317 8.74219 
ITEM: TIMESTEP
430000
ITEM: NUMBER OF ATOMS
15
ITEM: BOX BOUNDS ff fm pp
-4.1000000000000000e+01 4.1000000000000000e+01
0.0000000000000000e+00 2.0000000000000000e+02
-2.5000000000000000e-01 2.5000000000000000e-01
ITEM: ATOMS id type x y 
42493 4 -1.91767 3.82772 
42494 4 -2.77915 4.33547 
42499 4 -4.50211 5.35096 
42496 4 -3.64063 4.84321 
42497 4 -2.77014 5.3354 
42495 4 -1.90866 4.82766 
42503 4 -5.36359 5.8587 
42500 4 -3.63162 5.84315 
42498 4 -1.89966 5.8276 
42504 4 -4.49311 6.3509 
42501 4 -2.76114 6.33534 
42505 4 -3.62262 6.84309 
42502 4 -1.89065 6.82753 
42506 4 -2.75213 7.33528 
42507 4 -1.88164 7.82747 
ITEM: TIMESTEP
440000
ITEM: NUMBER OF ATOMS
15
ITEM: BOX BOUNDS ff fm pp
-4.1000000000000000e+01 4.1000000000000000e+01
0.0000000000000000e+00 2.0000000000000000e+02
-2.5000000000000000e-01 2.5000000000000000e-01
ITEM: ATOMS id type x y 
42493 4 -1.92569 3.31672 
42494 4 -2.80234 3.79779 
42499 4 -4.55565 4.75994 
42496 4 -3.679 4.27887 
42495 4 -1.94737 4.31646 
42503 4 -5.43231 5.24101 
42500 4 -3.70068 5.27861 
42497 4 -2.82402 4.79754 
42498 4 -1.96905 5.31621 
42504 4 -4.57733 5.75968 
42501 4 -2.8457 5.79728 
42505 4 -3.72236 6.27835 
42502 4 -1.99073 6.31595 
42506 4 -2.86738 6.79702 
42507 4 -2.01241 7.31569 
ITEM: TIMESTEP
450000
ITEM: NUMBER OF ATOMS
15
ITEM: BOX BOUNDS ff fm pp
-4.1000000000000000e+01 4.1000000000000000e+01
0.0000000000000000e+00 2.0000000000000000e+02
-2.5000000000000000e-01 2.5000000000000000e-01
ITEM: ATOMS id type x y 
42493 4 -2.0145 3.23974 
42496 4 -3.77761 4.18381 
42494 4 -2.89606 3.71178 
42499 4 -4.65917 4.65584 
42497 4 -2.92802 4.71124 
42495 4 -2.04646 4.23921 
42503 4 -5.54073 5.12787 
42500 4 -3.80957 5.18327 
42498 4 -2.07842 5.23868 
42504 4 -4.69113 5.65531 
42501 4 -2.95998 5.71071 
42505 4 -3.84154 6.18274 
42502 4 -2.11038 6.23814 
42506 4 -2.99194 6.71018 
42507 4 -2.14235 7.23761 
ITEM: TIMESTEP
460000
ITEM: NUMBER OF ATOMS
15
ITEM: BOX BOUNDS ff fm pp
-4.1000000000000000e+01 4.1000000000000000e+01
0.0000000000000000e+00 2.0000000000000000e+02
-2.5000000000000000e-01 2.5000000000000000e-01
ITEM: ATOMS id type x y 
42493 4 -2.00665 3.24462 
42496 4 -3.76646 4.19483 
42494 4 -2.88655 3.71973 
42499 4 -4.64636 4.66994 
42497 4 -2.91502 4.7193 
42495 4 -2.03512 4.24419 
42503 4 -5.52626 5.14505 
42500 4 -3.79493 5.19441 
42498 4 -2.06359 5.24376 
42504 4 -4.67483 5.66951 
42501 4 -2.9435 5.71887 
42505 4 -3.8234 6.19398 
42502 4 -2.09206 6.24334 
42506 4 -2.97197 6.71844 
42507 4 -2.12054 7.24291 
ITEM: TIMESTEP
470000
ITEM: NUMBER OF ATOMS
15
ITEM: BOX BOUNDS ff fm pp
-4.1000000000000000e+01 4.1000000000000000e+01
0.0000000000000000e+00 2.0000000000000000e+02
-2.5000000000000000e-01 2.5000000000000000e-01
ITEM: ATOMS id type x y 
42493 4 -2.00335 3.25795 
42494 4 -2.88031 3.73847 
42499 4 -4.63422 4.69952 
42496 4 -3.75726 4.21899 
42497 4 -2.90261 4.7382 
42495 4 -2.02566 4.25767 
42503 4 -5.51117 5.18004 
42500 4 -3.77957 5.21872 
42498 4 -2.04796 5.2574 
42504 4 -4.65652 5.69925 
42501 4 -2.92492 5.73793 
42505 4 -3.80187 6.21845 
42502 4 -2.07027 6.25713 
42506 4 -2.94722 6.73766 
42507 4 -2.09258 7.25686 
ITEM: TIMESTEP
480000
ITEM: NUMBER OF ATOMS
15
ITEM: BOX BOUNDS ff fm pp
-4.1000000000000000e+01 4.1000000000000000e+01
0.0000000000000000e+00 2.0000000000000000e+02
-2.5000000000000000e-01 2.5000000000000000e-01
ITEM: ATOMS id type x y 
42493 4 -2.017 3.25714 
42494 4 -2.89539 3.73503 
42499 4 -4.65217 4.69082 
42496 4 -3.77378 4.21293 
42497 4 -2.92069 4.73469 
42495 4 -2.0423 4.2568 
42503 4 -5.53057 5.16871 
42500 4 -3.79908 5.21258 
42498 4 -2.0676 5.25646 
42504 4 -4.67748 5.69048 
42501 4 -2.946 5.73435 
42505 4 -3.82439 6.21224 
42502 4 -2.09291 6.25611 
42506 4 -2.9713 6.73401 
42507 4 -2.11821 7.25577 
ITEM: TIMESTEP
490000
ITEM: NUMBER OF ATOMS
15
ITEM: BOX BOUNDS ff fm pp
-4.1000000000000000e+01 4.1000000000000000e+01