ITEM: TIMESTEP
0
ITEM: NUMBER OF ATOMS
15
ITEM: BOX BOUNDS ff fm pp
-4.1000000000000000e+01 4.1000000000000000e+01
0.0000000000000000e+00 2.0000000000000000e+02
-2.5000000000000000e-01 2.5000000000000000e-01
ITEM: ATOMS id type x y 
42518 5 8 136.536 
42519 5 9 136.536 
42520 5 10 136.536 
42521 5 11 136.536 
42522 5 12 136.536 
42514 5 8.5 137.402 
42515 5 9.5 137.402 
42516 5 10.5 137.402 
42517 5 11.5 137.402 
42511 5 9 138.268 
42512 5 10 138.268 
42513 5 11 138.268 
42509 5 9.5 139.134 
42510 5 10.5 139.134 
42508 5 10 140 
ITEM: TIMESTEP
10000
ITEM: NUMBER OF ATOMS
15
ITEM: BOX BOUNDS ff fm pp
-4.1000000000000000e+01 4.1000000000000000e+01
0.0000000000000000e+00 2.0000000000000000e+02
-2.5000000000000000e-01 2.5000000000000000e-01
ITEM: ATOMS id type x y 
42518 5 8 136.411 
42519 5 9 136.411 
42520 5 10 136.411 
42521 5 11 136.411 
42522 5 12 136.411 
42514 5 8.5 137.277 
42515 5 9.5 137.277 
42516 5 10.5 137.277 
42517 5 11.5 137.277 
42511 5 9 138.143 
42512 5 10 138.143 
42513 5 11 138.143 
42509 5 9.5 139.009 
42510 5 10.5 139.009 
42508 5 10 139.875 
ITEM: TIMESTEP
20000
ITEM: NUMBER OF ATOMS
15
ITEM: BOX BOUNDS ff fm pp
-4.1000000000000000e+01 4.1000000000000000e+01
0.0000000000000000e+00 2.0000000000000000e+02
-2.5000000000000000e-01 2.5000000000000000e-01
ITEM: ATOMS id type x y 
42518 5 8 136.036 
42519 5 9 136.036 
42520 5 10 136.036 
42521 5 11 136.036 
42522 5 12 136.036 
42514 5 8.5 136.902 
42515 5 9.5 136.902 
42516 5 10.5 136.902 
42517 5 11.5 136.902 
42511 5 9 137.768 
42512 5 10 137.768 
42513 5 11 137.768 
42509 5 9.5 138.634 
42510 5 10.5 138.634 
42508 5 10 139.5 
ITEM: TIMESTEP
30000
ITEM: NUMBER OF ATOMS
15
ITEM: BOX BOUNDS ff fm pp
-4.1000000000000000e+01 4.1000000000000000e+01
0.0000000000000000e+00 2.0000000000000000e+02
-2.5000000000000000e-01 2.5000000000000000e-01
ITEM: ATOMS id type x y 
42518 5 8 135.411 
42519 5 9 135.411 
42520 5 10 135.411 
42521 5 11 135.411 
42522 5 12 135.411 
42514 5 8.5 136.277 
42515 5 9.5 136.277 
42516 5 10.5 136.277 
42517 5 11.5 136.277 
42511 5 9 137.143 
42512 5 10 137.143 
42513 5 11 137.143 
42509 5 9.5 138.009 
42510 5 10.5 138.009 
42508 5 10 138.875 
ITEM: TIMESTEP
40000
ITEM: NUMBER OF ATOMS
15
ITEM: BOX BOUNDS ff fm pp
-4.1000000000000000e+01 4.1000000000000000e+01
0.0000000000000000e+00 2.0000000000000000e+02
-2.5000000000000000e-01 2.5000000000000000e-01
ITEM: ATOMS id type x y 
42518 5 8 134.536 
42519 5 9 134.536 
42520 5 10 134.536 
42521 5 11 134.536 
42522 5 12 134.536 
42514 5 8.5 135.402 
42515 5 9.5 135.402 
42516 5 10.5 135.402 
42517 5 11.5 135.402 
42511 5 9 136.268 
42512 5 10 136.268 
42513 5 11 136.268 
42509 5 9.5 137.134 
42510 5 10.5 137.134 
42508 5 10 138 
ITEM: TIMESTEP
50000
ITEM: NUMBER OF ATOMS
15
ITEM: BOX BOUNDS ff fm pp
-4.1000000000000000e+01 4.1000000000000000e+01
0.0000000000000000e+00 2.0000000000000000e+02
-2.5000000000000000e-01 2.5000000000000000e-01
ITEM: ATOMS id type x y 
42518 5 8 133.411 
42519 5 9 133.411 
42520 5 10 133.411 
42521 5 11 133.411 
42522 5 12 133.411 
42514 5 8.5 134.277 
42515 5 9.5 134.277 
42516 5 10.5 134.277 
42517 5 11.5 134.277 
42511 5 9 135.143 
42512 5 10 135.143 
42513 5 11 135.143 
42509 5 9.5 136.009 
42510 5 10.5 136.009 
42508 5 10 136.875 
ITEM: TIMESTEP
60000
ITEM: NUMBER OF ATOMS
15
ITEM: BOX BOUNDS ff fm pp
-4.1000000000000000e+01 4.1000000000000000e+01
0.0000000000000000e+00 2.0000000000000000e+02
-2.5000000000000000e-01 2.5000000000000000e-01
ITEM: ATOMS id type x y 
42518 5 8 132.036 
42519 5 9 132.036 
42520 5 10 132.036 
42521 5 11 132.036 
42522 5 12 132.036 
42514 5 8.5 132.902 
42515 5 9.5 132.902 
42516 5 10.5 132.902 
42517 5 11.5 132.902 
42511 5 9 133.768 
42512 5 10 133.768 
42513 5 11 133.768 
42509 5 9.5 134.634 
42510 5 10.5 134.634 
42508 5 10 135.5 
ITEM: TIMESTEP
70000
ITEM: NUMBER OF ATOMS
15
ITEM: BOX BOUNDS ff fm pp
-4.1000000000000000e+01 4.1000000000000000e+01
0.0000000000000000e+00 2.0000000000000000e+02
-2.5000000000000000e-01 2.5000000000000000e-01
ITEM: ATOMS id type x y 
42518 5 8 130.411 
42519 5 9 130.411 
42520 5 10 130.411 
42521 5 11 130.411 
42522 5 12 130.411 
42514 5 8.5 131.277 
42515 5 9.5 131.277 
42516 5 10.5 131.277 
42517 5 11.5 131.277 
42511 5 9 132.143 
42512 5 10 132.143 
42513 5 11 132.143 
42509 5 9.5 133.009 
42510 5 10.5 133.009 
42508 5 10 133.875 
ITEM: TIMESTEP
80000
ITEM: NUMBER OF ATOMS
15
ITEM: BOX BOUNDS ff fm pp
-4.1000000000000000e+01 4.1000000000000000e+01
0.0000000000000000e+00 2.0000000000000000e+02
-2.5000000000000000e-01 2.5000000000000000e-01
ITEM: ATOMS id type x y 
42518 5 8 128.536 
42519 5 9 128.536 
42520 5 10 128.536 
42521 5 11 128.536 
42522 5 12 128.536 
42514 5 8.5 129.402 
42515 5 9.5 129.402 
42516 5 10.5 129.402 
42517 5 11.5 129.402 
42511 5 9 130.268 
42512 5 10 130.268 
42513 5 11 130.268 
42509 5 9.5 131.134 
42510 5 10.5 131.134 
42508 5 10 132 
ITEM: TIMESTEP
90000
ITEM: NUMBER OF ATOMS
15
ITEM: BOX BOUNDS ff fm pp
-4.1000000000000000e+01 4.1000000000000000e+01
0.0000000000000000e+00 2.0000000000000000e+02
-2.5000000000000000e-01 2.5000000000000000e-01
ITEM: ATOMS id type x y 
42518 5 8 126.411 
42519 5 9 126.411 
42520 5 10 126.411 
42521 5 11 126.411 
42522 5 12 126.411 
42514 5 8.5 127.277 
42515 5 9.5 127.277 
42516 5 10.5 127.277 
42517 5 11.5 127.277 
42511 5 9 128.143 
42512 5 10 128.143 
42513 5 11 128.143 
42509 5 9.5 129.009 
42510 5 10.5 129.009 
42508 5 10 129.875 
ITEM: TIMESTEP
100000
ITEM: NUMBER OF ATOMS
15
ITEM: BOX BOUNDS ff fm pp
-4.1000000000000000e+01 4.1000000000000000e+01
0.0000000000000000e+00 2.0000000000000000e+02
-2.5000000000000000e-01 2.5000000000000000e-01
ITEM: ATOMS id type x y 
42518 5 8 124.036 
42519 5 9 124.036 
42520 5 10 124.036 
42521 5 11 124.036 
42522 5 12 124.036 
42514 5 8.5 124.902 
42515 5 9.5 124.902 
42516 5 10.5 124.902 
42517 5 11.5 124.902 
42511 5 9 125.768 
42512 5 10 125.768 
42513 5 11 125.768 
42509 5 9.5 126.634 
42510 5 10.5 126.634 
42508 5 10 127.5 
ITEM: TIMESTEP
110000
ITEM: NUMBER OF ATOMS
15
ITEM: BOX BOUNDS ff fm pp
-4.1000000000000000e+01 4.1000000000000000e+01
0.0000000000000000e+00 2.0000000000000000e+02
-2.5000000000000000e-01 2.5000000000000000e-01
ITEM: ATOMS id type x y 
42518 5 8 121.411 
42519 5 9 121.411 
42520 5 10 121.411 
42521 5 11 121.411 
42522 5 12 121.411 
42514 5 8.5 122.277 
42515 5 9.5 122.277 
42516 5 10.5 122.277 
42517 5 11.5 122.277 
42511 5 9 123.143 
42512 5 10 123.143 
42513 5 11 123.143 
42509 5 9.5 124.009 
42510 5 10.5 124.009 
42508 5 10 124.875 
ITEM: TIMESTEP
120000
ITEM: NUMBER OF ATOMS
15
ITEM: BOX BOUNDS ff fm pp
-4.1000000000000000e+01 4.1000000000000000e+01
0.0000000000000000e+00 2.0000000000000000e+02
-2.5000000000000000e-01 2.5000000000000000e-01
ITEM: ATOMS id type x y 
42508 5 9.99806 122.065 
42518 5 8.00068 118.599 
42519 5 9.00068 118.6 
42520 5 10.0007 118.601 
42521 5 11.0007 118.601 
42522 5 12.0007 118.602 
42514 5 8.50002 119.466 
42515 5 9.50002 119.466 
42516 5 10.5 119.467 
42517 5 11.5 119.468 
42511 5 8.99937 120.332 
42512 5 9.99937 120.333 
42513 5 10.9994 120.333 
42509 5 9.49871 121.198 
42510 5 10.4987 121.199 
ITEM: TIMESTEP
130000
ITEM: NUMBER OF ATOMS
15
ITEM: BOX BOUNDS ff fm pp
-4.1000000000000000e+01 4.1000000000000000e+01
0.0000000000000000e+00 2.0000000000000000e+02
-2.5000000000000000e-01 2.5000000000000000e-01
ITEM: ATOMS id type x y 
42518 5 8.00537 115.82 
42519 5 9.00535 115.814 
42520 5 10.0053 115.808 
42521 5 11.0053 115.802 
42522 5 12.0053 115.796 
42514 5 8.51067 116.683 
42515 5 9.51065 116.677 
42516 5 10.5106 116.671 
42517 5 11.5106 116.665 
42511 5 9.01596 117.546 
42512 5 10.0159 117.54 
42513 5 11.0159 117.534 
42509 5 9.52125 118.409 
42510 5 10.5212 118.403 
42508 5 10.0265 119.272 
ITEM: TIMESTEP
140000
ITEM: NUMBER OF ATOMS
15
ITEM: BOX BOUNDS ff fm pp
-4.1000000000000000e+01 4.1000000000000000e+01
0.0000000000000000e+00 2.0000000000000000e+02
-2.5000000000000000e-01 2.5000000000000000e-01
ITEM: ATOMS id type x y 
42518 5 8.0755 113.044 
42519 5 9.07548 113.05 
42520 5 10.0755 113.056 
42521 5 11.0754 113.063 
42522 5 12.0754 113.069 
42514 5 8.57023 113.913 
42515 5 9.57021 113.919 
42516 5 10.5702 113.925 
42517 5 11.5702 113.932 
42511 5 9.06495 114.782 
42512 5 10.0649 114.788 
42513 5 11.0649 114.794 
42509 5 9.55968 115.651 
42510 5 10.5597 115.657 
42508 5 10.0544 116.52 
ITEM: TIMESTEP
150000
ITEM: NUMBER OF ATOMS
15
ITEM: BOX BOUNDS ff fm pp
-4.1000000000000000e+01 4.1000000000000000e+01
0.0000000000000000e+00 2.0000000000000000e+02
-2.5000000000000000e-01 2.5000000000000000e-01
ITEM: ATOMS id type x y 
42518 5 8.17534 110.462 
42519 5 9.17532 110.468 
42520 5 10.1753 110.475 
42521 5 11.1753 110.481 
42522 5 12.1753 110.488 
42514 5 8.66966 111.331 
42515 5 9.66964 111.337 
42516 5 10.6696 111.344 
42517 5 11.6696 111.35 
42511 5 9.16399 112.2 
42512 5 10.164 112.207 
42513 5 11.1639 112.213 
42509 5 9.65832 113.069 
42510 5 10.6583 113.076 
42508 5 10.1526 113.939 
ITEM: TIMESTEP
160000
ITEM: NUMBER OF ATOMS
15
ITEM: BOX BOUNDS ff fm pp
-4.1000000000000000e+01 4.1000000000000000e+01
0.0000000000000000e+00 2.0000000000000000e+02
-2.5000000000000000e-01 2.5000000000000000e-01
ITEM: ATOMS id type x y 
42518 5 8.2997 107.977 
42519 5 9.29968 107.984 
42520 5 10.2997 107.991 
42521 5 11.2996 107.998 
42522 5 12.2996 108.005 
42514 5 8.79368 108.846 
42515 5 9.79366 108.853 
42516 5 10.7936 108.86 
42517 5 11.7936 108.867 
42511 5 9.28766 109.716 
42512 5 10.2876 109.723 
42513 5 11.2876 109.73 
42509 5 9.78163 110.585 
42510 5 10.7816 110.592 
42508 5 10.2756 111.455 
ITEM: TIMESTEP
170000
ITEM: NUMBER OF ATOMS
15
ITEM: BOX BOUNDS ff fm pp
-4.1000000000000000e+01 4.1000000000000000e+01
0.0000000000000000e+00 2.0000000000000000e+02
-2.5000000000000000e-01 2.5000000000000000e-01
ITEM: ATOMS id type x y 
42518 5 8.42171 105.556 
42519 5 9.42171 105.556 
42520 5 10.4217 105.557 
42521 5 11.4217 105.557 
42522 5 12.4217 105.557 
42514 5 8.92142 106.422 
42515 5 9.92142 106.422 
42516 5 10.9214 106.423 
42517 5 11.9214 106.423 
42511 5 9.42113 107.288 
42512 5 10.4211 107.289 
42513 5 11.4211 107.289 
42509 5 9.92085 108.154 
42510 5 10.9208 108.155 
42508 5 10.4206 109.021 
ITEM: TIMESTEP
180000
ITEM: NUMBER OF ATOMS
15
ITEM: BOX BOUNDS ff fm pp
-4.1000000000000000e+01 4.1000000000000000e+01
0.0000000000000000e+00 2.0000000000000000e+02
-2.5000000000000000e-01 2.5000000000000000e-01
ITEM: ATOMS id type x y 
42518 5 8.5341 103.229 
42519 5 9.53366 103.2 
42520 5 10.5332 103.17 
42521 5 11.5328 103.141 
42522 5 12.5323 103.111 
42514 5 9.05949 104.08 
42515 5 10.0591 104.051 
42516 5 11.0586 104.021 
42517 5 12.0582 103.991 
42513 5 11.584 104.872 
42511 5 9.58489 104.931 
42512 5 10.5845 104.901 
42509 5 10.1103 105.782 
42510 5 11.1098 105.752 
42508 5 10.6357 106.633 
ITEM: TIMESTEP
190000
ITEM: NUMBER OF ATOMS
15
ITEM: BOX BOUNDS ff fm pp
-4.1000000000000000e+01 4.1000000000000000e+01
0.0000000000000000e+00 2.0000000000000000e+02
-2.5000000000000000e-01 2.5000000000000000e-01
ITEM: ATOMS id type x y 
42518 5 8.65706 100.967 
42519 5 9.65465 100.897 
42520 5 10.6522 100.828 
42521 5 11.6498 100.758 
42522 5 12.6474 100.689 
42514 5 9.21602 101.796 
42515 5 10.2136 101.726 
42516 5 11.2112 101.657 
42517 5 12.2088 101.588 
42513 5 11.7702 102.486 
42511 5 9.77499 102.625 
42512 5 10.7726 102.556 
42509 5 10.3339 103.454 
42510 5 11.3315 103.385 
42508 5 10.8929 104.283 
ITEM: TIMESTEP
200000
ITEM: NUMBER OF ATOMS
15
ITEM: BOX BOUNDS ff fm pp
-4.1000000000000000e+01 4.1000000000000000e+01
0.0000000000000000e+00 2.0000000000000000e+02
-2.5000000000000000e-01 2.5000000000000000e-01
ITEM: ATOMS id type x y 
42518 5 8.80442 98.7819 
42519 5 9.79697 98.6601 
42520 5 10.7895 98.5383 
42521 5 11.7821 98.4165 
42522 5 12.7746 98.2947 
42515 5 10.3987 99.4588 
42516 5 11.3913 99.337 
42517 5 12.3838 99.2151 
42514 5 9.40618 99.5806 
42511 5 10.0079 100.379 
42512 5 11.0005 100.257 
42513 5 11.9931 100.136 
42509 5 10.6097 101.178 
42510 5 11.6023 101.056 
42508 5 11.2115 101.977 
ITEM: TIMESTEP
210000
ITEM: NUMBER OF ATOMS
15
ITEM: BOX BOUNDS ff fm pp
-4.1000000000000000e+01 4.1000000000000000e+01
0.0000000000000000e+00 2.0000000000000000e+02
-2.5000000000000000e-01 2.5000000000000000e-01
ITEM: ATOMS id type x y 
42519 5 9.95398 96.454 
42520 5 10.935 96.2601 
42521 5 11.9161 96.0663 
42522 5 12.8971 95.8725 
42518 5 8.97295 96.6478 
42516 5 11.5934 97.0128 
42517 5 12.5744 96.819 
42514 5 9.63132 97.4005 
42515 5 10.6124 97.2066 
42511 5 10.2897 98.1531 
42512 5 11.2707 97.9593 
42513 5 12.2518 97.7655 
42510 5 11.9291 98.7119 
42509 5 10.9481 98.9058 
42508 5 11.6065 99.6584 
ITEM: TIMESTEP
220000
ITEM: NUMBER OF ATOMS
15
ITEM: BOX BOUNDS ff fm pp
-4.1000000000000000e+01 4.1000000000000000e+01
0.0000000000000000e+00 2.0000000000000000e+02
-2.5000000000000000e-01 2.5000000000000000e-01
ITEM: ATOMS id type x y 
42522 5 13.0309 93.3741 
42520 5 11.1082 93.9247 
42521 5 12.0696 93.6494 
42518 5 9.18553 94.4754 
42519 5 10.1469 94.2001 
42516 5 11.8273 94.6196 
42517 5 12.7887 94.3443 
42514 5 9.90464 95.1703 
42515 5 10.866 94.8949 
42511 5 10.6237 95.8651 
42512 5 11.5851 95.5898 
42513 5 12.5464 95.3145 
42510 5 12.3042 96.2847 
42509 5 11.3428 96.56 
42508 5 12.0619 97.2549 
ITEM: TIMESTEP
230000
ITEM: NUMBER OF ATOMS
15
ITEM: BOX BOUNDS ff fm pp
-4.1000000000000000e+01 4.1000000000000000e+01
0.0000000000000000e+00 2.0000000000000000e+02
-2.5000000000000000e-01 2.5000000000000000e-01
ITEM: ATOMS id type x y 
42522 5 13.1685 90.7804 
42520 5 11.3073 91.5125 
42521 5 12.2379 91.1464 
42518 5 9.4461 92.2446 
42519 5 10.3767 91.8786 
42516 5 12.0896 92.1354 
42517 5 13.0202 91.7693 
42514 5 10.2284 92.8675 
42515 5 11.159 92.5014 
42513 5 12.8719 92.7582 
42512 5 11.9413 93.1243 
42511 5 11.0107 93.4903 
42510 5 12.7236 93.7471 
42509 5 11.793 94.1132 
42508 5 12.5753 94.7361 
ITEM: TIMESTEP
240000
ITEM: NUMBER OF ATOMS
15
ITEM: BOX BOUNDS ff fm pp
-4.1000000000000000e+01 4.1000000000000000e+01
0.0000000000000000e+00 2.0000000000000000e+02
-2.5000000000000000e-01 2.5000000000000000e-01
ITEM: ATOMS id type x y 
42521 5 12.4468 88.5526 
42522 5 13.3374 88.0978 
42520 5 11.5562 89.0074 
42517 5 13.286 89.0964 
42519 5 10.6657 89.4622 
42516 5 12.3954 89.5513 
42518 5 9.77507 89.917 
42515 5 11.5048 90.0061 
42513 5 13.2346 90.0951 
42514 5 10.6142 90.4609 
42511 5 11.4534 91.0047 
42512 5 12.344 90.5499 
42509 5 12.2925 91.5486 
42510 5 13.1831 91.0938 
42508 5 13.1317 92.0924 
ITEM: TIMESTEP
250000
ITEM: NUMBER OF ATOMS
15
ITEM: BOX BOUNDS ff fm pp
-4.1000000000000000e+01 4.1000000000000000e+01
0.0000000000000000e+00 2.0000000000000000e+02
-2.5000000000000000e-01 2.5000000000000000e-01
ITEM: ATOMS id type x y 
42522 5 13.5201 85.3133 
42521 5 12.6812 85.8576 
42520 5 11.8423 86.4018 
42517 5 13.572 86.312 
42519 5 11.0034 86.9461 
42515 5 11.8941 87.4005 
42516 5 12.7331 86.8562 
42513 5 13.6238 87.3106 
42518 5 10.1644 87.4903 
42514 5 11.0552 87.9447 
42512 5 12.7849 87.8548 
42511 5 11.946 88.3991 
42510 5 13.6757 88.3092 
42509 5 12.8368 88.8535 
42508 5 13.7276 89.3079 
ITEM: TIMESTEP
260000
ITEM: NUMBER OF ATOMS
15
ITEM: BOX BOUNDS ff fm pp
-4.1000000000000000e+01 4.1000000000000000e+01
0.0000000000000000e+00 2.0000000000000000e+02
-2.5000000000000000e-01 2.5000000000000000e-01
ITEM: ATOMS id type x y 
42522 5 13.7405 82.4376 
42521 5 12.9633 83.0668 
42520 5 12.1861 83.6961 
42517 5 13.8968 83.4253 
42519 5 11.4089 84.3253 
42516 5 13.1196 84.0545 
42518 5 10.6317 84.9546 
42515 5 12.3424 84.6838 
42513 5 14.0532 84.4129 
42514 5 11.5652 85.313 
42512 5 13.276 85.0422 
42510 5 14.2095 85.4006 
42511 5 12.4988 85.6714 
42509 5 13.4323 86.0299 
42508 5 14.3658 86.3883 
ITEM: TIMESTEP
270000
ITEM: NUMBER OF ATOMS
15
ITEM: BOX BOUNDS ff fm pp
-4.1000000000000000e+01 4.1000000000000000e+01
0.0000000000000000e+00 2.0000000000000000e+02
-2.5000000000000000e-01 2.5000000000000000e-01
ITEM: ATOMS id type x y 
42522 5 14.0326 79.4657 
42521 5 13.32 80.1673 
42517 5 14.2838 80.4336 
42520 5 12.6074 80.8688 
42516 5 13.5712 81.1352 
42519 5 11.8947 81.5703 
42515 5 12.8586 81.8367 
42513 5 14.5351 81.4016 
42518 5 11.1821 82.2718 
42514 5 12.1459 82.5382 
42512 5 13.8224 82.1031 
42510 5 14.7863 82.3695 
42511 5 13.1098 82.8046 
42509 5 14.0736 83.071 
42508 5 15.0375 83.3374 
ITEM: TIMESTEP
280000
ITEM: NUMBER OF ATOMS
15
ITEM: BOX BOUNDS ff fm pp
-4.1000000000000000e+01 4.1000000000000000e+01
0.0000000000000000e+00 2.0000000000000000e+02
-2.5000000000000000e-01 2.5000000000000000e-01
ITEM: ATOMS id type x y 
42522 5 14.4034 76.3817 
42521 5 13.7545 77.1425 
42517 5 14.7378 77.3241 
42520 5 13.1055 77.9034 
42516 5 14.0889 78.0849 
42513 5 15.0723 78.2665 
42519 5 12.4566 78.6642 
42515 5 13.44 78.8458 
42518 5 11.8077 79.4251 
42512 5 14.4233 79.0273 
42510 5 15.4067 79.2089 
42514 5 12.791 79.6066 
42511 5 13.7744 79.7882 
42509 5 14.7578 79.9697 
42508 5 15.7411 80.1513 
ITEM: TIMESTEP
290000
ITEM: NUMBER OF ATOMS
15
ITEM: BOX BOUNDS ff fm pp
-4.1000000000000000e+01 4.1000000000000000e+01
0.0000000000000000e+00 2.0000000000000000e+02
-2.5000000000000000e-01 2.5000000000000000e-01
ITEM: ATOMS id type x y 
42522 5 14.8044 73.1669 
42521 5 14.2242 73.9813 
42517 5 15.2197 74.0765 
42520 5 13.644 74.7958 
42516 5 14.6395 74.891 
42513 5 15.6349 74.9862 
42519 5 13.0638 75.6103 
42515 5 14.0593 75.7055 
42512 5 15.0547 75.8007 
42510 5 16.0501 75.8959 
42518 5 12.4836 76.4248 
42514 5 13.4791 76.52 
42511 5 14.4745 76.6152 
42509 5 15.4699 76.7104 
42508 5 16.4654 76.8056 
ITEM: TIMESTEP
300000
ITEM: NUMBER OF ATOMS
15
ITEM: BOX BOUNDS ff fm pp
-4.1000000000000000e+01 4.1000000000000000e+01
0.0000000000000000e+00 2.0000000000000000e+02
-2.5000000000000000e-01 2.5000000000000000e-01
ITEM: ATOMS id type x y 
42522 5 15.2204 69.8359 
42521 5 14.7156 70.6992 
42517 5 15.7156 70.7047 
42520 5 14.2108 71.5624 
42516 5 15.2108 71.568 
42513 5 16.2107 71.5735 
42519 5 13.706 72.4257 
42515 5 14.706 72.4312 
42512 5 15.706 72.4367 
42510 5 16.7059 72.4422 
42518 5 13.2012 73.2889 
42514 5 14.2012 73.2945 
42511 5 15.2012 73.3 
42509 5 16.2011 73.3055 
42508 5 17.2011 73.311 
ITEM: TIMESTEP
310000
ITEM: NUMBER OF ATOMS
15
ITEM: BOX BOUNDS ff fm pp
-4.1000000000000000e+01 4.1000000000000000e+01
0.0000000000000000e+00 2.0000000000000000e+02
-2.5000000000000000e-01 2.5000000000000000e-01
ITEM: ATOMS id type x y 
42522 5 15.6784 66.4329 
42521 5 15.2525 67.3377 
42517 5 16.249 67.2541 
42516 5 15.8231 68.1589 
42513 5 16.8196 68.0753 
42520 5 14.8266 68.2425 
42519 5 14.4007 69.1472 
42515 5 15.3972 69.0637 
42512 5 16.3937 68.9801 
42510 5 17.3902 68.8965 
42514 5 14.9713 69.9684 
42511 5 15.9678 69.8849 
42509 5 16.9643 69.8013 
42508 5 17.9608 69.7177 
42518 5 13.9748 70.052 
ITEM: TIMESTEP
320000
ITEM: NUMBER OF ATOMS
15
ITEM: BOX BOUNDS ff fm pp
-4.1000000000000000e+01 4.1000000000000000e+01
0.0000000000000000e+00 2.0000000000000000e+02
-2.5000000000000000e-01 2.5000000000000000e-01
ITEM: ATOMS id type x y 
42522 5 16.1919 62.9509 
42521 5 15.8374 63.886 
42517 5 16.8244 63.7254 
42513 5 17.4569 64.5 
42520 5 15.4828 64.821 
42516 5 16.4699 64.6605 
42519 5 15.1283 65.7561 
42515 5 16.1153 65.5955 
42512 5 17.1024 65.435 
42510 5 18.0894 65.2745 
42514 5 15.7608 66.5306 
42509 5 17.7349 66.2096 
42508 5 18.7219 66.049 
42511 5 16.7478 66.3701 
42518 5 14.7738 66.6911 
ITEM: TIMESTEP
330000
ITEM: NUMBER OF ATOMS
15
ITEM: BOX BOUNDS ff fm pp
-4.1000000000000000e+01 4.1000000000000000e+01
0.0000000000000000e+00 2.0000000000000000e+02
-2.5000000000000000e-01 2.5000000000000000e-01
ITEM: ATOMS id type x y 
42522 5 16.7306 59.4113 
42517 5 17.4164 60.139 
42521 5 16.4433 60.3691 
42513 5 18.1023 60.8667 
42520 5 16.156 61.327 
42516 5 17.1291 61.0968 
42515 5 16.8419 62.0547 
42512 5 17.815 61.8245 
42510 5 18.7881 61.5944 
42519 5 15.8687 62.2848 
42509 5 18.5009 62.5522 
42508 5 19.474 62.3221 
42518 5 15.5815 63.2427 
42514 5 16.5546 63.0125 
42511 5 17.5277 62.7824 
ITEM: TIMESTEP
340000
ITEM: NUMBER OF ATOMS
15
ITEM: BOX BOUNDS ff fm pp
-4.1000000000000000e+01 4.1000000000000000e+01
0.0000000000000000e+00 2.0000000000000000e+02
-2.5000000000000000e-01 2.5000000000000000e-01
ITEM: ATOMS id type x y 
42522 5 17.2391 55.8427 
42517 5 17.9776 56.5169 
42521 5 17.0245 56.8194 
42513 5 18.7162 57.1911 
42520 5 16.81 57.7961 
42516 5 17.7631 57.4936 
42510 5 19.4547 57.8652 
42515 5 17.5485 58.4703 
42512 5 18.5016 58.1678 
42519 5 16.5954 58.7728 
42509 5 19.2402 58.8419 
42508 5 20.1933 58.5394 
42514 5 17.3339 59.447 
42511 5 18.287 59.1445 
42518 5 16.3808 59.7495 
ITEM: TIMESTEP
350000
ITEM: NUMBER OF ATOMS
15
ITEM: BOX BOUNDS ff fm pp
-4.1000000000000000e+01 4.1000000000000000e+01
0.0000000000000000e+00 2.0000000000000000e+02
-2.5000000000000000e-01 2.5000000000000000e-01
ITEM: ATOMS id type x y 
42522 5 17.7008 52.2648 
42517 5 18.4946 52.8728 
42521 5 17.5711 53.2563 
42513 5 19.2885 53.4809 
42520 5 17.4415 54.2479 
42516 5 18.365 53.8644 
42510 5 20.0824 54.0889 
42515 5 18.2353 54.8559 
42512 5 19.1588 54.4724 
42508 5 20.8762 54.697 
42519 5 17.3118 55.2394 
42511 5 19.0292 55.464 
42509 5 19.9527 55.0805 
42514 5 18.1057 55.8475 
42518 5 17.1822 56.231 
ITEM: TIMESTEP
360000
ITEM: NUMBER OF ATOMS
15
ITEM: BOX BOUNDS ff fm pp
-4.1000000000000000e+01 4.1000000000000000e+01
0.0000000000000000e+00 2.0000000000000000e+02
-2.5000000000000000e-01 2.5000000000000000e-01
ITEM: ATOMS id type x y 
42522 5 18.0416 48.73 
42517 5 18.8973 49.2473 
42521 5 18.0214 49.7298 
42513 5 19.753 49.7647 
42520 5 18.0012 50.7295 
42516 5 18.8771 50.2471 
42510 5 20.6087 50.2821 
42515 5 18.8569 51.2469 
42512 5 19.7328 50.7645 
42509 5 20.5886 51.2819 
42508 5 21.4645 50.7995 
42519 5 17.981 51.7293 
42511 5 19.7126 51.7643 
42514 5 18.8367 52.2467 
42518 5 17.9608 52.7291 
ITEM: TIMESTEP
370000
ITEM: NUMBER OF ATOMS
15
ITEM: BOX BOUNDS ff fm pp
-4.1000000000000000e+01 4.1000000000000000e+01
0.0000000000000000e+00 2.0000000000000000e+02
-2.5000000000000000e-01 2.5000000000000000e-01
ITEM: ATOMS id type x y 
42522 5 18.2853 45.26 
42517 5 19.198 45.6687 
42521 5 18.3877 46.2547 
42513 5 20.1106 46.0774 
42510 5 21.0233 46.4861 
42516 5 19.3004 46.6634 
42512 5 20.213 47.0722 
42508 5 21.9359 46.8948 
42520 5 18.4901 47.2495 
42515 5 19.4027 47.6582 
42509 5 21.1256 47.4809 
42519 5 18.5925 48.2442 
42511 5 20.3154 48.0669 
42514 5 19.5051 48.6529 
42518 5 18.6949 49.239 
ITEM: TIMESTEP
380000
ITEM: NUMBER OF ATOMS
15
ITEM: BOX BOUNDS ff fm pp
-4.1000000000000000e+01 4.1000000000000000e+01
0.0000000000000000e+00 2.0000000000000000e+02
-2.5000000000000000e-01 2.5000000000000000e-01
ITEM: ATOMS id type x y 
42522 5 18.4674 41.8401 
42517 5 19.4251 42.1277 
42521 5 18.6972 42.8133 
42513 5 20.3828 42.4153 
42510 5 21.3406 42.7029 
42516 5 19.6549 43.1009 
42512 5 20.6127 43.3885 
42508 5 22.2983 42.9905 
42520 5 18.927 43.7866 
42515 5 19.8848 44.0742 
42509 5 21.5704 43.6761 
42511 5 20.8425 44.3618 
42519 5 19.1568 44.7598 
42514 5 20.1146 45.0474 
42518 5 19.3867 45.733 
ITEM: TIMESTEP
390000
ITEM: NUMBER OF ATOMS
15
ITEM: BOX BOUNDS ff fm pp
-4.1000000000000000e+01 4.1000000000000000e+01
0.0000000000000000e+00 2.0000000000000000e+02
-2.5000000000000000e-01 2.5000000000000000e-01
ITEM: ATOMS id type x y 
42522 5 18.646 38.4798 
42517 5 19.6306 38.6545 
42513 5 20.6152 38.8291 
42510 5 21.5998 39.0038 
42508 5 22.5844 39.1785 
42521 5 18.987 39.4199 
42516 5 19.9716 39.5945 
42512 5 20.9562 39.7692 
42520 5 19.3281 40.3599 
42509 5 21.9408 39.9439 
42515 5 20.3127 40.5346 
42511 5 21.2973 40.7092 
42519 5 19.6691 41.2999 
42514 5 20.6537 41.4746 
42518 5 20.0102 42.24 
ITEM: TIMESTEP
400000
ITEM: NUMBER OF ATOMS
15
ITEM: BOX BOUNDS ff fm pp
-4.1000000000000000e+01 4.1000000000000000e+01
0.0000000000000000e+00 2.0000000000000000e+02
-2.5000000000000000e-01 2.5000000000000000e-01
ITEM: ATOMS id type x y 
42522 5 18.7881 35.2259 
42517 5 19.7866 35.2809 
42513 5 20.785 35.3358 
42510 5 21.7835 35.3908 
42508 5 22.782 35.4457 
42521 5 19.2398 36.1181 
42516 5 20.2382 36.1731 
42512 5 21.2367 36.228 
42509 5 22.2352 36.283 
42520 5 19.6914 37.0103 
42515 5 20.6899 37.0653 
42511 5 21.6884 37.1202 
42519 5 20.1431 37.9025 
42514 5 21.1416 37.9574 
42518 5 20.5948 38.7947 
ITEM: TIMESTEP
410000
ITEM: NUMBER OF ATOMS
15
ITEM: BOX BOUNDS ff fm pp
-4.1000000000000000e+01 4.1000000000000000e+01
0.0000000000000000e+00 2.0000000000000000e+02
-2.5000000000000000e-01 2.5000000000000000e-01
ITEM: ATOMS id type x y 
42522 5 18.9193 32.0316 
42517 5 19.917 31.9649 
42513 5 20.9148 31.8981 
42510 5 21.9125 31.8313 
42508 5 22.9103 31.7645 
42509 5 22.4692 32.662 
42521 5 19.476 32.8623 
42516 5 20.4737 32.7956 
42512 5 21.4715 32.7288 
42520 5 20.0327 33.693 
42515 5 21.0305 33.6262 
42511 5 22.0282 33.5595 
42514 5 21.5872 34.4569 
42519 5 20.5894 34.5237 
42518 5 21.1462 35.3544 
ITEM: TIMESTEP
420000
ITEM: NUMBER OF ATOMS
15
ITEM: BOX BOUNDS ff fm pp
-4.1000000000000000e+01 4.1000000000000000e+01
0.0000000000000000e+00 2.0000000000000000e+02
-2.5000000000000000e-01 2.5000000000000000e-01
ITEM: ATOMS id type x y 
42513 5 21.0246 28.4614 
42510 5 22.0063 28.2713 
42508 5 22.9881 28.0813 
42522 5 19.0611 28.8416 
42517 5 20.0428 28.6515 
42509 5 22.6618 29.0265 
42521 5 19.7166 29.5968 
42516 5 20.6983 29.4067 
42512 5 21.6801 29.2166 
42515 5 21.3538 30.1619 
42511 5 22.3356 29.9718 
42520 5 20.3721 30.3519 
42519 5 21.0276 31.1071 
42514 5 22.0094 30.9171 
42518 5 21.6831 31.8623 
ITEM: TIMESTEP
430000
ITEM: NUMBER OF ATOMS
15
ITEM: BOX BOUNDS ff fm pp
-4.1000000000000000e+01 4.1000000000000000e+01
0.0000000000000000e+00 2.0000000000000000e+02
-2.5000000000000000e-01 2.5000000000000000e-01
ITEM: ATOMS id type x y 
42510 5 22.1112 24.7755 
42508 5 23.0638 24.4714 
42517 5 20.2059 25.3835 
42513 5 21.1585 25.0795 
42509 5 22.8508 25.4485 
42522 5 19.2533 25.6875 
42516 5 20.9455 26.0565 
42512 5 21.8982 25.7525 
42521 5 19.9929 26.3605 
42511 5 22.6378 26.4255 
42520 5 20.7325 27.0335 
42515 5 21.6852 26.7295 
42519 5 21.4722 27.7065 
42514 5 22.4248 27.4025 
42518 5 22.2118 28.3796 
ITEM: TIMESTEP
440000
ITEM: NUMBER OF ATOMS
15
ITEM: BOX BOUNDS ff fm pp
-4.1000000000000000e+01 4.1000000000000000e+01
0.0000000000000000e+00 2.0000000000000000e+02
-2.5000000000000000e-01 2.5000000000000000e-01
ITEM: ATOMS id type x y 
42508 5 23.0888 20.9588 
42513 5 21.2747 21.8007 
42510 5 22.1818 21.3798 
42517 5 20.3676 22.2217 
42512 5 22.0928 22.3758 
42509 5 22.9999 21.9548 
42522 5 19.4606 22.6426 
42516 5 21.1858 22.7967 
42511 5 22.9109 22.9508 
42521 5 20.2787 23.2177 
42515 5 22.0039 23.3718 
42520 5 21.0968 23.7927 
42514 5 22.822 23.9468 
42519 5 21.9149 24.3678 
42518 5 22.733 24.9429 
ITEM: TIMESTEP
450000
ITEM: NUMBER OF ATOMS
15
ITEM: BOX BOUNDS ff fm pp
-4.1000000000000000e+01 4.1000000000000000e+01
0.0000000000000000e+00 2.0000000000000000e+02
-2.5000000000000000e-01 2.5000000000000000e-01
ITEM: ATOMS id type x y 
42508 5 23.0142 17.6048 
42510 5 22.1705 18.1415 
42513 5 21.3268 18.6783 
42509 5 23.0573 18.6038 
42517 5 20.4831 19.2151 
42512 5 22.2136 19.1406 
42522 5 19.6394 19.7519 
42516 5 21.3699 19.6774 
42511 5 23.1003 19.6029 
42521 5 20.5262 20.2141 
42520 5 21.4129 20.6764 
42515 5 22.2566 20.1396 
42514 5 23.1434 20.6019 
42519 5 22.2997 21.1387 
42518 5 23.1864 21.601 
ITEM: TIMESTEP
460000
ITEM: NUMBER OF ATOMS
15
ITEM: BOX BOUNDS ff fm pp
-4.1000000000000000e+01 4.1000000000000000e+01
0.0000000000000000e+00 2.0000000000000000e+02
-2.5000000000000000e-01 2.5000000000000000e-01
ITEM: ATOMS id type x y 
42508 5 22.8544 14.6334 
42510 5 22.0707 15.2546 
42513 5 21.287 15.8757 
42509 5 23.0005 15.6227 
42517 5 20.5033 16.4968 
42512 5 22.2168 16.2438 
42522 5 19.7197 17.1179 
42516 5 21.4331 16.8649 
42511 5 23.1466 16.6119 
42521 5 20.6494 17.4861 
42515 5 22.3629 17.2331 
42514 5 23.2927 17.6012 
42520 5 21.5792 17.8542 
42519 5 22.509 18.2223 
42518 5 23.4388 18.5904 
ITEM: TIMESTEP
470000
ITEM: NUMBER OF ATOMS
15
ITEM: BOX BOUNDS ff fm pp
-4.1000000000000000e+01 4.1000000000000000e+01
0.0000000000000000e+00 2.0000000000000000e+02
-2.5000000000000000e-01 2.5000000000000000e-01
ITEM: ATOMS id type x y 
42508 5 22.6832 12.1642 
42510 5 21.9272 12.8187 
42513 5 21.1711 13.4731 
42509 5 22.872 13.1462 
42517 5 20.415 14.1275 
42512 5 22.1159 13.8007 
42511 5 23.0607 14.1282 
42522 5 19.6589 14.782 
42516 5 21.3598 14.4551 
42515 5 22.3046 14.7827 
42521 5 20.6037 15.1095 
42514 5 23.2495 15.1102 
42520 5 21.5486 15.4371 
42519 5 22.4934 15.7647 
42518 5 23.4382 16.0922 
ITEM: TIMESTEP
480000
ITEM: NUMBER OF ATOMS
15
ITEM: BOX BOUNDS ff fm pp
-4.1000000000000000e+01 4.1000000000000000e+01
0.0000000000000000e+00 2.0000000000000000e+02
-2.5000000000000000e-01 2.5000000000000000e-01
ITEM: ATOMS id type x y 
42508 5 22.4688 10.3623 
42510 5 21.7515 11.059 
42513 5 21.0341 11.7557 
42509 5 22.7135 11.3318 
42517 5 20.3168 12.4524 
42512 5 21.9962 12.0286 
42511 5 22.9582 12.3014 
42516 5 21.2789 12.7253 
42515 5 22.2409 12.9981 
42522 5 19.5995 13.1491 
42521 5 20.5616 13.422 
42514 5 23.203 13.271 
42520 5 21.5236 13.6948 
42519 5 22.4857 13.9677 
42518 5 23.4477 14.2405 
ITEM: TIMESTEP
490000
ITEM: NUMBER OF ATOMS
15
ITEM: BOX BOUNDS ff fm pp
-4.1000000000000000e+01 4.1000000000000000e+01
0.0000000000000000e+00 2.0000000000000000e+02
-2.5000000000000000e-01 2.5000000000000000e-01
ITEM: ATOMS id type x y 
42508 5 22.2 9.28843 
42510 5 21.5078 10.0102 
42513 5 20.8157 10.7319 
42509 5 22.479 10.2487 
42512 5 21.7868 10.9704 
42511 5 22.7579 11.209 
42517 5 20.1235 11.4536 
42516 5 21.0947 11.6922 
42515 5 22.0658 11.9307 
42522 5 19.4314 12.1754 
42521 5 20.4025 12.4139 
42514 5 23.0369 12.1692 
42520 5 21.3737 12.6524 
42519 5 22.3448 12.891 
42518 5 23.3159 13.1295 
ITEM: TIMESTEP
500000
ITEM: NUMBER OF ATOMS
15
ITEM: BOX BOUNDS ff fm pp
-4.1000000000000000e+01 4.1000000000000000e+01
0.0000000000000000e+00 2.0000000000000000e+02
-2.5000000000000000e-01 2.5000000000000000e-01
ITEM: ATOMS id type x y 
42508 5 21.9073 8.65263 
42510 5 21.2407 9.39806 
42513 5 20.5742 10.1435 