ITEM: TIMESTEP
0
ITEM: NUMBER OF ATOMS
15
ITEM: BOX BOUNDS ff fm pp
-4.1000000000000000e+01 4.1000000000000000e+01
0.0000000000000000e+00 2.0000000000000000e+02
-2.5000000000000000e-01 2.5000000000000000e-01
ITEM: ATOMS id type x y 
42533 6 18 136.536 
42534 6 19 136.536 
42535 6 20 136.536 
42536 6 21 136.536 
42537 6 22 136.536 
42529 6 18.5 137.402 
42530 6 19.5 137.402 
42531 6 20.5 137.402 
42532 6 21.5 137.402 
42526 6 19 138.268 
42527 6 20 138.268 
42528 6 21 138.268 
42524 6 19.5 139.134 
42525 6 20.5 139.134 
42523 6 20 140 
ITEM: TIMESTEP
10000
ITEM: NUMBER OF ATOMS
15
ITEM: BOX BOUNDS ff fm pp
-4.1000000000000000e+01 4.1000000000000000e+01
0.0000000000000000e+00 2.0000000000000000e+02
-2.5000000000000000e-01 2.5000000000000000e-01
ITEM: ATOMS id type x y 
42533 6 18 136.411 
42534 6 19 136.411 
42535 6 20 136.411 
42536 6 21 136.411 
42537 6 22 136.411 
42529 6 18.5 137.277 
42530 6 19.5 137.277 
42531 6 20.5 137.277 
42532 6 21.5 137.277 
42526 6 19 138.143 
42527 6 20 138.143 
42528 6 21 138.143 
42524 6 19.5 139.009 
42525 6 20.5 139.009 
42523 6 20 139.875 
ITEM: TIMESTEP
20000
ITEM: NUMBER OF ATOMS
15
ITEM: BOX BOUNDS ff fm pp
-4.1000000000000000e+01 4.1000000000000000e+01
0.0000000000000000e+00 2.0000000000000000e+02
-2.5000000000000000e-01 2.5000000000000000e-01
ITEM: ATOMS id type x y 
42533 6 18 136.036 
42534 6 19 136.036 
42535 6 20 136.036 
42536 6 21 136.036 
42537 6 22 136.036 
42529 6 18.5 136.902 
42530 6 19.5 136.902 
42531 6 20.5 136.902 
42532 6 21.5 136.902 
42526 6 19 137.768 
42527 6 20 137.768 
42528 6 21 137.768 
42524 6 19.5 138.634 
42525 6 20.5 138.634 
42523 6 20 139.5 
ITEM: TIMESTEP
30000
ITEM: NUMBER OF ATOMS
15
ITEM: BOX BOUNDS ff fm pp
-4.1000000000000000e+01 4.1000000000000000e+01
0.0000000000000000e+00 2.0000000000000000e+02
-2.5000000000000000e-01 2.5000000000000000e-01
ITEM: ATOMS id type x y 
42533 6 18 135.411 
42534 6 19 135.411 
42535 6 20 135.411 
42536 6 21 135.411 
42537 6 22 135.411 
42529 6 18.5 136.277 
42530 6 19.5 136.277 
42531 6 20.5 136.277 
42532 6 21.5 136.277 
42526 6 19 137.143 
42527 6 20 137.143 
42528 6 21 137.143 
42524 6 19.5 138.009 
42525 6 20.5 138.009 
42523 6 20 138.875 
ITEM: TIMESTEP
40000
ITEM: NUMBER OF ATOMS
15
ITEM: BOX BOUNDS ff fm pp
-4.1000000000000000e+01 4.1000000000000000e+01
0.0000000000000000e+00 2.0000000000000000e+02
-2.5000000000000000e-01 2.5000000000000000e-01
ITEM: ATOMS id type x y 
42533 6 18 134.536 
42534 6 19 134.536 
42535 6 20 134.536 
42536 6 21 134.536 
42537 6 22 134.536 
42529 6 18.5 135.402 
42530 6 19.5 135.402 
42531 6 20.5 135.402 
42532 6 21.5 135.402 
42526 6 19 136.268 
42527 6 20 136.268 
42528 6 21 136.268 
42524 6 19.5 137.134 
42525 6 20.5 137.134 
42523 6 20 138 
ITEM: TIMESTEP
50000
ITEM: NUMBER OF ATOMS
15
ITEM: BOX BOUNDS ff fm pp
-4.1000000000000000e+01 4.1000000000000000e+01
0.0000000000000000e+00 2.0000000000000000e+02
-2.5000000000000000e-01 2.5000000000000000e-01
ITEM: ATOMS id type x y 
42533 6 18 133.411 
42534 6 19 133.411 
42535 6 20 133.411 
42536 6 21 133.411 
42537 6 22 133.411 
42529 6 18.5 134.277 
42530 6 19.5 134.277 
42531 6 20.5 134.277 
42532 6 21.5 134.277 
42526 6 19 135.143 
42527 6 20 135.143 
42528 6 21 135.143 
42524 6 19.5 136.009 
42525 6 20.5 136.009 
42523 6 20 136.875 
ITEM: TIMESTEP
60000
ITEM: NUMBER OF ATOMS
15
ITEM: BOX BOUNDS ff fm pp
-4.1000000000000000e+01 4.1000000000000000e+01
0.0000000000000000e+00 2.0000000000000000e+02
-2.5000000000000000e-01 2.5000000000000000e-01
ITEM: ATOMS id type x y 
42533 6 18 132.036 
42534 6 19 132.036 
42535 6 20 132.036 
42536 6 21 132.036 
42537 6 22 132.036 
42529 6 18.5 132.902 
42530 6 19.5 132.902 
42531 6 20.5 132.902 
42532 6 21.5 132.902 
42526 6 19 133.768 
42527 6 20 133.768 
42528 6 21 133.768 
42524 6 19.5 134.634 
42525 6 20.5 134.634 
42523 6 20 135.5 
ITEM: TIMESTEP
70000
ITEM: NUMBER OF ATOMS
15
ITEM: BOX BOUNDS ff fm pp
-4.1000000000000000e+01 4.1000000000000000e+01
0.0000000000000000e+00 2.0000000000000000e+02
-2.5000000000000000e-01 2.5000000000000000e-01
ITEM: ATOMS id type x y 
42533 6 18 130.411 
42534 6 19 130.411 
42535 6 20 130.411 
42536 6 21 130.411 
42537 6 22 130.411 
42529 6 18.5 131.277 
42530 6 19.5 131.277 
42531 6 20.5 131.277 
42532 6 21.5 131.277 
42526 6 19 132.143 
42527 6 20 132.143 
42528 6 21 132.143 
42524 6 19.5 133.009 
42525 6 20.5 133.009 
42523 6 20 133.875 
ITEM: TIMESTEP
80000
ITEM: NUMBER OF ATOMS
15
ITEM: BOX BOUNDS ff fm pp
-4.1000000000000000e+01 4.1000000000000000e+01
0.0000000000000000e+00 2.0000000000000000e+02
-2.5000000000000000e-01 2.5000000000000000e-01
ITEM: ATOMS id type x y 
42533 6 18 128.536 
42534 6 19 128.536 
42535 6 20 128.536 
42536 6 21 128.536 
42537 6 22 128.536 
42529 6 18.5 129.402 
42530 6 19.5 129.402 
42531 6 20.5 129.402 
42532 6 21.5 129.402 
42526 6 19 130.268 
42527 6 20 130.268 
42528 6 21 130.268 
42524 6 19.5 131.134 
42525 6 20.5 131.134 
42523 6 20 132 
ITEM: TIMESTEP
90000
ITEM: NUMBER OF ATOMS
15
ITEM: BOX BOUNDS ff fm pp
-4.1000000000000000e+01 4.1000000000000000e+01
0.0000000000000000e+00 2.0000000000000000e+02
-2.5000000000000000e-01 2.5000000000000000e-01
ITEM: ATOMS id type x y 
42533 6 18 126.411 
42534 6 19 126.411 
42535 6 20 126.411 
42536 6 21 126.411 
42537 6 22 126.411 
42529 6 18.5 127.277 
42530 6 19.5 127.277 
42531 6 20.5 127.277 
42532 6 21.5 127.277 
42526 6 19 128.143 
42527 6 20 128.143 
42528 6 21 128.143 
42524 6 19.5 129.009 
42525 6 20.5 129.009 
42523 6 20 129.875 
ITEM: TIMESTEP
100000
ITEM: NUMBER OF ATOMS
15
ITEM: BOX BOUNDS ff fm pp
-4.1000000000000000e+01 4.1000000000000000e+01
0.0000000000000000e+00 2.0000000000000000e+02
-2.5000000000000000e-01 2.5000000000000000e-01
ITEM: ATOMS id type x y 
42533 6 18 124.036 
42534 6 19 124.036 
42535 6 20 124.036 
42536 6 21 124.036 
42537 6 22 124.036 
42529 6 18.5 124.902 
42530 6 19.5 124.902 
42531 6 20.5 124.902 
42532 6 21.5 124.902 
42526 6 19 125.768 
42527 6 20 125.768 
42528 6 21 125.768 
42524 6 19.5 126.634 
42525 6 20.5 126.634 
42523 6 20 127.5 
ITEM: TIMESTEP
110000
ITEM: NUMBER OF ATOMS
15
ITEM: BOX BOUNDS ff fm pp
-4.1000000000000000e+01 4.1000000000000000e+01
0.0000000000000000e+00 2.0000000000000000e+02
-2.5000000000000000e-01 2.5000000000000000e-01
ITEM: ATOMS id type x y 
42533 6 18 121.411 
42534 6 19 121.411 
42535 6 20 121.411 
42536 6 21 121.411 
42537 6 22 121.411 
42529 6 18.5 122.277 
42530 6 19.5 122.277 
42531 6 20.5 122.277 
42532 6 21.5 122.277 
42526 6 19 123.143 
42527 6 20 123.143 
42528 6 21 123.143 
42524 6 19.5 124.009 
42525 6 20.5 124.009 
42523 6 20 124.875 
ITEM: TIMESTEP
120000
ITEM: NUMBER OF ATOMS
15
ITEM: BOX BOUNDS ff fm pp
-4.1000000000000000e+01 4.1000000000000000e+01
0.0000000000000000e+00 2.0000000000000000e+02
-2.5000000000000000e-01 2.5000000000000000e-01
ITEM: ATOMS id type x y 
42523 6 20.0084 122.082 
42524 6 19.5031 121.219 
42525 6 20.5031 121.213 
42533 6 17.9872 118.631 
42534 6 18.9871 118.624 
42535 6 19.9871 118.618 
42536 6 20.9871 118.612 
42537 6 21.9871 118.606 
42529 6 18.4925 119.493 
42530 6 19.4925 119.487 
42531 6 20.4924 119.481 
42532 6 21.4924 119.475 
42526 6 18.9978 120.356 
42527 6 19.9978 120.35 
42528 6 20.9978 120.344 
ITEM: TIMESTEP
130000
ITEM: NUMBER OF ATOMS
15
ITEM: BOX BOUNDS ff fm pp
-4.1000000000000000e+01 4.1000000000000000e+01
0.0000000000000000e+00 2.0000000000000000e+02
-2.5000000000000000e-01 2.5000000000000000e-01
ITEM: ATOMS id type x y 
42533 6 17.9748 115.813 
42534 6 18.9746 115.794 
42535 6 19.9745 115.776 
42536 6 20.9743 115.757 
42537 6 21.9741 115.739 
42529 6 18.4908 116.669 
42530 6 19.4906 116.651 
42531 6 20.4905 116.632 
42532 6 21.4903 116.614 
42526 6 19.0068 117.526 
42527 6 20.0066 117.507 
42528 6 21.0065 117.489 
42524 6 19.5228 118.383 
42525 6 20.5226 118.364 
42523 6 20.0388 119.239 
ITEM: TIMESTEP
140000
ITEM: NUMBER OF ATOMS
15
ITEM: BOX BOUNDS ff fm pp
-4.1000000000000000e+01 4.1000000000000000e+01
0.0000000000000000e+00 2.0000000000000000e+02
-2.5000000000000000e-01 2.5000000000000000e-01
ITEM: ATOMS id type x y 
42533 6 17.9788 112.969 
42534 6 18.978 112.931 
42535 6 19.9773 112.893 
42536 6 20.9766 112.855 
42537 6 21.9759 112.818 
42529 6 18.5111 113.815 
42530 6 19.5104 113.778 
42531 6 20.5097 113.74 
42532 6 21.509 113.702 
42526 6 19.0435 114.662 
42527 6 20.0428 114.624 
42528 6 21.0421 114.586 
42524 6 19.5759 115.508 
42525 6 20.5752 115.471 
42523 6 20.1083 116.355 
ITEM: TIMESTEP
150000
ITEM: NUMBER OF ATOMS
15
ITEM: BOX BOUNDS ff fm pp
-4.1000000000000000e+01 4.1000000000000000e+01
0.0000000000000000e+00 2.0000000000000000e+02
-2.5000000000000000e-01 2.5000000000000000e-01
ITEM: ATOMS id type x y 
42533 6 18.031 110.15 
42534 6 19.0296 110.097 
42535 6 20.0282 110.043 
42536 6 21.0268 109.99 
42537 6 22.0254 109.937 
42529 6 18.5764 110.988 
42530 6 19.5749 110.935 
42531 6 20.5735 110.882 
42532 6 21.5721 110.828 
42526 6 19.1217 111.826 
42527 6 20.1203 111.773 
42528 6 21.1189 111.72 
42525 6 20.6656 112.611 
42524 6 19.667 112.664 
42523 6 20.2123 113.502 
ITEM: TIMESTEP
160000
ITEM: NUMBER OF ATOMS
15
ITEM: BOX BOUNDS ff fm pp
-4.1000000000000000e+01 4.1000000000000000e+01
0.0000000000000000e+00 2.0000000000000000e+02
-2.5000000000000000e-01 2.5000000000000000e-01
ITEM: ATOMS id type x y 
42534 6 19.1336 107.208 
42535 6 20.1315 107.143 
42536 6 21.1293 107.078 
42537 6 22.1272 107.013 
42533 6 18.1357 107.273 
42529 6 18.691 108.105 
42530 6 19.6889 108.04 
42531 6 20.6867 107.975 
42532 6 21.6846 107.91 
42526 6 19.2463 108.936 
42527 6 20.2441 108.871 
42528 6 21.242 108.806 
42524 6 19.8015 109.768 
42525 6 20.7994 109.703 
42523 6 20.3568 110.6 
ITEM: TIMESTEP
170000
ITEM: NUMBER OF ATOMS
15
ITEM: BOX BOUNDS ff fm pp
-4.1000000000000000e+01 4.1000000000000000e+01
0.0000000000000000e+00 2.0000000000000000e+02
-2.5000000000000000e-01 2.5000000000000000e-01
ITEM: ATOMS id type x y 
42535 6 20.2801 104.19 
42536 6 21.2767 104.108 
42537 6 22.2733 104.026 
42533 6 18.2868 104.354 
42534 6 19.2834 104.272 
42529 6 18.8561 105.176 
42530 6 19.8528 105.094 
42531 6 20.8494 105.012 
42532 6 21.846 104.93 
42526 6 19.4255 105.998 
42527 6 20.4221 105.916 
42528 6 21.4187 105.834 
42524 6 19.9948 106.82 
42525 6 20.9914 106.738 
42523 6 20.5641 107.642 
ITEM: TIMESTEP
180000
ITEM: NUMBER OF ATOMS
15
ITEM: BOX BOUNDS ff fm pp
-4.1000000000000000e+01 4.1000000000000000e+01
0.0000000000000000e+00 2.0000000000000000e+02
-2.5000000000000000e-01 2.5000000000000000e-01
ITEM: ATOMS id type x y 
42535 6 20.4705 101.195 
42536 6 21.4647 101.087 
42537 6 22.4588 100.979 
42533 6 18.4823 101.411 
42534 6 19.4764 101.303 
42529 6 19.073 102.218 
42530 6 20.0672 102.11 
42531 6 21.0613 102.002 
42532 6 22.0554 101.894 
42527 6 20.6579 102.917 
42528 6 21.6521 102.809 
42526 6 19.6638 103.025 
42524 6 20.2546 103.832 
42525 6 21.2487 103.724 
42523 6 20.8453 104.639 
ITEM: TIMESTEP
190000
ITEM: NUMBER OF ATOMS
15
ITEM: BOX BOUNDS ff fm pp
-4.1000000000000000e+01 4.1000000000000000e+01
0.0000000000000000e+00 2.0000000000000000e+02
-2.5000000000000000e-01 2.5000000000000000e-01
ITEM: ATOMS id type x y 
42535 6 20.7311 98.1873 
42536 6 21.7224 98.0551 
42537 6 22.7136 97.9229 
42533 6 18.7487 98.4517 
42534 6 19.7399 98.3195 
42529 6 19.3588 99.244 
42530 6 20.35 99.1118 
42531 6 21.3413 98.9796 
42532 6 22.3325 98.8474 
42527 6 20.9602 99.9041 
42528 6 21.9514 99.7719 
42526 6 19.9689 100.036 
42524 6 20.579 100.829 
42525 6 21.5703 100.696 
42523 6 21.1892 101.621 
ITEM: TIMESTEP
200000
ITEM: NUMBER OF ATOMS
15
ITEM: BOX BOUNDS ff fm pp
-4.1000000000000000e+01 4.1000000000000000e+01
0.0000000000000000e+00 2.0000000000000000e+02
-2.5000000000000000e-01 2.5000000000000000e-01
ITEM: ATOMS id type x y 
42535 6 21.0444 95.1687 
42536 6 22.0319 95.011 
42537 6 23.0194 94.8534 
42533 6 19.0694 95.4839 
42534 6 20.0569 95.3263 
42532 6 22.6622 95.7874 
42529 6 19.6997 96.2603 
42530 6 20.6872 96.1026 
42531 6 21.6747 95.945 
42527 6 21.3174 96.879 
42528 6 22.3049 96.7214 
42526 6 20.3299 97.0366 
42524 6 20.9602 97.813 
42525 6 21.9477 97.6554 
42523 6 21.5904 98.5894 
ITEM: TIMESTEP
210000
ITEM: NUMBER OF ATOMS
15
ITEM: BOX BOUNDS ff fm pp
-4.1000000000000000e+01 4.1000000000000000e+01
0.0000000000000000e+00 2.0000000000000000e+02
-2.5000000000000000e-01 2.5000000000000000e-01
ITEM: ATOMS id type x y 
42535 6 21.4154 92.133 
42536 6 22.3979 91.9469 
42537 6 23.3804 91.7607 
42533 6 19.4503 92.5053 
42534 6 20.4329 92.3191 
42532 6 23.0504 92.7047 
42529 6 20.1028 93.2631 
42530 6 21.0853 93.0769 
42531 6 22.0678 92.8908 
42527 6 21.7378 93.8347 
42528 6 22.7203 93.6486 
42526 6 20.7553 94.0209 
42525 6 22.3902 94.5925 
42524 6 21.4077 94.7787 
42523 6 22.0602 95.5365 
ITEM: TIMESTEP
220000
ITEM: NUMBER OF ATOMS
15
ITEM: BOX BOUNDS ff fm pp
-4.1000000000000000e+01 4.1000000000000000e+01
0.0000000000000000e+00 2.0000000000000000e+02
-2.5000000000000000e-01 2.5000000000000000e-01
ITEM: ATOMS id type x y 
42535 6 21.8352 89.0854 
42536 6 22.8114 88.8684 
42537 6 23.7875 88.6514 
42533 6 19.8828 89.5194 
42534 6 20.859 89.3024 
42532 6 23.4874 89.6053 
42529 6 20.5589 90.2563 
42530 6 21.535 90.0393 
42531 6 22.5112 89.8223 
42527 6 22.211 90.7761 
42528 6 23.1872 90.5591 
42526 6 21.2349 90.9931 
42525 6 22.8871 91.513 
42524 6 21.9109 91.73 
42523 6 22.5869 92.4669 
ITEM: TIMESTEP
230000
ITEM: NUMBER OF ATOMS
15
ITEM: BOX BOUNDS ff fm pp
-4.1000000000000000e+01 4.1000000000000000e+01
0.0000000000000000e+00 2.0000000000000000e+02
-2.5000000000000000e-01 2.5000000000000000e-01
ITEM: ATOMS id type x y 
42537 6 24.2647 85.534 
42535 6 22.3213 86.0064 
42536 6 23.293 85.7702 
42533 6 20.3779 86.4788 
42534 6 21.3496 86.2426 
42531 6 23.0117 86.7298 
42532 6 23.9834 86.4936 
42529 6 21.0683 87.2022 
42530 6 22.04 86.966 
42526 6 21.7587 87.9256 
42527 6 22.7304 87.6894 
42528 6 23.7021 87.4532 
42525 6 23.4208 88.4128 
42524 6 22.4491 88.649 
42523 6 23.1395 89.3724 
ITEM: TIMESTEP
240000
ITEM: NUMBER OF ATOMS
15
ITEM: BOX BOUNDS ff fm pp
-4.1000000000000000e+01 4.1000000000000000e+01
0.0000000000000000e+00 2.0000000000000000e+02
-2.5000000000000000e-01 2.5000000000000000e-01
ITEM: ATOMS id type x y 
42537 6 24.7991 82.4373 
42535 6 22.8646 82.945 
42536 6 23.8318 82.6911 
42533 6 20.9301 83.4526 
42534 6 21.8973 83.1988 
42531 6 23.568 83.6557 
42532 6 24.5353 83.4019 
42529 6 21.6335 84.1634 
42530 6 22.6008 83.9095 
42528 6 24.2715 84.3664 
42526 6 22.337 84.8741 
42527 6 23.3042 84.6203 
42524 6 23.0404 85.5848 
42525 6 24.0076 85.331 
42523 6 23.7438 86.2955 
ITEM: TIMESTEP
250000
ITEM: NUMBER OF ATOMS
15
ITEM: BOX BOUNDS ff fm pp
-4.1000000000000000e+01 4.1000000000000000e+01
0.0000000000000000e+00 2.0000000000000000e+02
-2.5000000000000000e-01 2.5000000000000000e-01
ITEM: ATOMS id type x y 
42537 6 25.3346 79.3203 
42535 6 23.4206 79.9006 
42536 6 24.3776 79.6105 
42533 6 21.5067 80.481 
42534 6 22.4636 80.1908 
42531 6 24.1504 80.5843 
42532 6 25.1074 80.2941 
42529 6 22.2364 81.1646 
42530 6 23.1934 80.8745 
42528 6 24.8802 81.2679 
42526 6 22.9662 81.8483 
42527 6 23.9232 81.5581 
42524 6 23.696 82.5319 
42525 6 24.653 82.2418 
42523 6 24.4258 83.2156 
ITEM: TIMESTEP
260000
ITEM: NUMBER OF ATOMS
15
ITEM: BOX BOUNDS ff fm pp
-4.1000000000000000e+01 4.1000000000000000e+01
0.0000000000000000e+00 2.0000000000000000e+02
-2.5000000000000000e-01 2.5000000000000000e-01
ITEM: ATOMS id type x y 
42536 6 24.9816 76.5269 
42537 6 25.9279 76.2038 
42534 6 23.0888 77.173 
42535 6 24.0352 76.85 
42533 6 22.1424 77.4961 
42531 6 24.7881 77.508 
42532 6 25.7345 77.1849 
42529 6 22.8954 78.1541 
42530 6 23.8418 77.8311 
42528 6 25.5411 78.166 
42526 6 23.6483 78.8122 
42527 6 24.5947 78.4891 
42524 6 24.4013 79.4702 
42525 6 25.3477 79.1471 
42523 6 25.1543 80.1282 
ITEM: TIMESTEP
270000
ITEM: NUMBER OF ATOMS
15
ITEM: BOX BOUNDS ff fm pp
-4.1000000000000000e+01 4.1000000000000000e+01
0.0000000000000000e+00 2.0000000000000000e+02
-2.5000000000000000e-01 2.5000000000000000e-01
ITEM: ATOMS id type x y 
42536 6 25.6406 73.4031 
42537 6 26.5775 73.0535 
42534 6 23.7668 74.1024 
42535 6 24.7037 73.7528 
42532 6 26.4118 74.0396 
42533 6 22.8299 74.452 
42530 6 24.538 74.7389 
42531 6 25.4749 74.3893 
42529 6 23.6012 75.0886 
42527 6 25.3093 75.3754 
42528 6 26.2462 75.0258 
42526 6 24.3724 75.7251 
42524 6 25.1436 76.3616 
42525 6 26.0805 76.012 
42523 6 25.9149 76.9981 
ITEM: TIMESTEP
280000
ITEM: NUMBER OF ATOMS
15
ITEM: BOX BOUNDS ff fm pp
-4.1000000000000000e+01 4.1000000000000000e+01
0.0000000000000000e+00 2.0000000000000000e+02
-2.5000000000000000e-01 2.5000000000000000e-01
ITEM: ATOMS id type x y 
42537 6 27.2816 69.8966 
42536 6 26.3533 70.2682 
42534 6 24.4966 71.0116 
42535 6 25.4249 70.6399 
42532 6 27.1393 70.8864 
42533 6 23.5682 71.3833 
42530 6 25.2826 71.6297 
42531 6 26.211 71.2581 
42529 6 24.3543 72.0014 
42527 6 26.0687 72.2479 
42528 6 26.9971 71.8762 
42526 6 25.1404 72.6195 
42525 6 26.8548 72.866 
42524 6 25.9264 73.2377 
42523 6 26.7125 73.8558 
ITEM: TIMESTEP
290000
ITEM: NUMBER OF ATOMS
15
ITEM: BOX BOUNDS ff fm pp
-4.1000000000000000e+01 4.1000000000000000e+01
0.0000000000000000e+00 2.0000000000000000e+02
-2.5000000000000000e-01 2.5000000000000000e-01
ITEM: ATOMS id type x y 
42537 6 28.0746 66.7746 
42535 6 26.2273 67.541 
42536 6 27.151 67.1578 
42534 6 25.3036 67.9242 
42531 6 27.021 68.1493 
42532 6 27.9447 67.7661 
42533 6 24.38 68.3074 
42530 6 26.0973 68.5325 
42528 6 27.8147 68.7576 
42529 6 25.1737 68.9157 
42527 6 26.891 69.1408 
42526 6 25.9673 69.524 
42525 6 27.6847 69.7491 
42524 6 26.761 70.1323 
42523 6 27.5547 70.7405 
ITEM: TIMESTEP
300000
ITEM: NUMBER OF ATOMS
15
ITEM: BOX BOUNDS ff fm pp
-4.1000000000000000e+01 4.1000000000000000e+01
0.0000000000000000e+00 2.0000000000000000e+02
-2.5000000000000000e-01 2.5000000000000000e-01
ITEM: ATOMS id type x y 
42537 6 28.9061 63.7065 
42535 6 27.0678 64.4943 
42536 6 27.987 64.1004 
42534 6 26.1487 64.8882 
42531 6 27.8685 65.0933 
42532 6 28.7877 64.6994 
42533 6 25.2295 65.2821 
42530 6 26.9494 65.4872 
42528 6 28.6692 65.6924 
42529 6 26.0302 65.8811 
42527 6 27.7501 66.0863 
42526 6 26.8309 66.4802 
42525 6 28.5508 66.6853 
42524 6 27.6316 67.0792 
42523 6 28.4323 67.6782 
ITEM: TIMESTEP
310000
ITEM: NUMBER OF ATOMS
15
ITEM: BOX BOUNDS ff fm pp
-4.1000000000000000e+01 4.1000000000000000e+01
0.0000000000000000e+00 2.0000000000000000e+02
-2.5000000000000000e-01 2.5000000000000000e-01
ITEM: ATOMS id type x y 
42537 6 29.6852 60.6995 
42535 6 27.8664 61.5313 
42536 6 28.7758 61.1154 
42534 6 26.9569 61.9472 
42531 6 28.6812 62.1109 
42532 6 29.5906 61.695 
42533 6 26.0475 62.363 
42530 6 27.7718 62.5268 
42528 6 29.4961 62.6905 
42529 6 26.8624 62.9427 
42527 6 28.5867 63.1064 
42526 6 27.6772 63.5223 
42525 6 29.4015 63.686 
42524 6 28.4921 64.1019 
42523 6 29.307 64.6815 
ITEM: TIMESTEP
320000
ITEM: NUMBER OF ATOMS
15
ITEM: BOX BOUNDS ff fm pp
-4.1000000000000000e+01 4.1000000000000000e+01
0.0000000000000000e+00 2.0000000000000000e+02
-2.5000000000000000e-01 2.5000000000000000e-01
ITEM: ATOMS id type x y 
42537 6 30.4178 57.7557 
42536 6 29.526 58.2081 
42534 6 27.7424 59.1129 
42535 6 28.6342 58.6605 
42531 6 29.4719 59.2066 
42532 6 30.3637 58.7542 
42533 6 26.8506 59.5653 
42530 6 28.5801 59.659 
42528 6 30.3096 59.7527 
42529 6 27.6883 60.1114 
42527 6 29.4178 60.2051 
42526 6 28.526 60.6575 
42525 6 30.2555 60.7512 
42524 6 29.3636 61.2036 
42523 6 30.2013 61.7497 
ITEM: TIMESTEP
330000
ITEM: NUMBER OF ATOMS
15
ITEM: BOX BOUNDS ff fm pp
-4.1000000000000000e+01 4.1000000000000000e+01
0.0000000000000000e+00 2.0000000000000000e+02
-2.5000000000000000e-01 2.5000000000000000e-01
ITEM: ATOMS id type x y 
42537 6 31.1011 54.8842 
42536 6 30.2447 55.4005 
42535 6 29.3882 55.9167 
42532 6 31.12 55.884 
42534 6 28.5318 56.4329 
42531 6 30.2635 56.4003 
42533 6 27.6753 56.9492 
42530 6 29.4071 56.9165 
42528 6 31.1388 56.8838 
42529 6 28.5506 57.4327 
42526 6 29.4259 57.9163 
42527 6 30.2823 57.4001 
42525 6 31.1576 57.8836 
42524 6 30.3012 58.3999 
42523 6 31.1764 58.8834 
ITEM: TIMESTEP
340000
ITEM: NUMBER OF ATOMS
15
ITEM: BOX BOUNDS ff fm pp
-4.1000000000000000e+01 4.1000000000000000e+01
0.0000000000000000e+00 2.0000000000000000e+02
-2.5000000000000000e-01 2.5000000000000000e-01
ITEM: ATOMS id type x y 
42537 6 31.8298 52.2042 
42536 6 31.0032 52.767 
42532 6 31.9039 53.2015 
42535 6 30.1766 53.3298 
42531 6 31.0773 53.7642 
42534 6 29.35 53.8926 
42530 6 30.2506 54.327 
42528 6 31.9779 54.1987 
42533 6 28.5234 54.4553 
42529 6 29.424 54.8898 
42527 6 31.1513 54.7615 
42526 6 30.3247 55.3242 
42525 6 32.052 55.1959 
42524 6 31.2254 55.7587 
42523 6 32.126 56.1932 
ITEM: TIMESTEP
350000
ITEM: NUMBER OF ATOMS
15
ITEM: BOX BOUNDS ff fm pp
-4.1000000000000000e+01 4.1000000000000000e+01
0.0000000000000000e+00 2.0000000000000000e+02
-2.5000000000000000e-01 2.5000000000000000e-01
ITEM: ATOMS id type x y 
42537 6 32.5465 49.7036 
42536 6 31.745 50.3016 
42532 6 32.6637 50.6967 
42535 6 30.9436 50.8997 
42531 6 31.8622 51.2947 
42534 6 30.1421 51.4977 
42530 6 31.0607 51.8928 
42528 6 32.7808 51.6898 
42533 6 29.3406 52.0958 
42529 6 30.2593 52.4908 
42527 6 31.9794 52.2878 
42526 6 31.1779 52.8859 
42525 6 32.898 52.6829 
42524 6 32.0966 53.2809 
42523 6 33.0152 53.6759 
ITEM: TIMESTEP
360000
ITEM: NUMBER OF ATOMS
15
ITEM: BOX BOUNDS ff fm pp
-4.1000000000000000e+01 4.1000000000000000e+01
0.0000000000000000e+00 2.0000000000000000e+02
-2.5000000000000000e-01 2.5000000000000000e-01
ITEM: ATOMS id type x y 
42537 6 33.2606 47.4027 
42536 6 32.474 48.0201 
42532 6 33.402 48.3926 
42535 6 31.6874 48.6376 
42531 6 32.6154 49.01 
42534 6 30.9008 49.255 
42530 6 31.8288 49.6275 
42528 6 33.5434 49.3825 
42533 6 30.1141 49.8725 
42529 6 31.0422 50.245 
42527 6 32.7568 50 
42526 6 31.9702 50.6174 
42525 6 33.6848 50.3724 
42524 6 32.8982 50.9899 
42523 6 33.8262 51.3624 
ITEM: TIMESTEP
370000
ITEM: NUMBER OF ATOMS
15
ITEM: BOX BOUNDS ff fm pp
-4.1000000000000000e+01 4.1000000000000000e+01
0.0000000000000000e+00 2.0000000000000000e+02
-2.5000000000000000e-01 2.5000000000000000e-01
ITEM: ATOMS id type x y 
42537 6 33.8757 45.2576 
42536 6 33.1083 45.8987 
42535 6 32.3409 46.5399 
42532 6 34.0472 46.2427 
42534 6 31.5735 47.181 
42531 6 33.2798 46.8839 
42528 6 34.2188 47.2279 
42533 6 30.8061 47.8222 
42530 6 32.5124 47.525 
42527 6 33.4514 47.8691 
42529 6 31.745 48.1662 
42525 6 34.3903 48.2131 
42526 6 32.6839 48.5102 
42524 6 33.6229 48.8542 
42523 6 34.5618 49.1982 
ITEM: TIMESTEP
380000
ITEM: NUMBER OF ATOMS
15
ITEM: BOX BOUNDS ff fm pp
-4.1000000000000000e+01 4.1000000000000000e+01
0.0000000000000000e+00 2.0000000000000000e+02
-2.5000000000000000e-01 2.5000000000000000e-01
ITEM: ATOMS id type x y 
42537 6 34.3826 43.183 
42536 6 33.6462 43.8596 
42532 6 34.6004 44.1589 
42535 6 32.9099 44.5362 
42531 6 33.864 44.8356 
42534 6 32.1736 45.2128 
42528 6 34.8181 45.1349 
42533 6 31.4372 45.8894 
42530 6 33.1277 45.5122 
42527 6 34.0818 45.8115 
42529 6 32.3913 46.1888 
42526 6 33.3455 46.4881 
42525 6 35.0359 46.1109 
42524 6 34.2996 46.7875 
42523 6 35.2537 47.0869 
ITEM: TIMESTEP
390000
ITEM: NUMBER OF ATOMS
15
ITEM: BOX BOUNDS ff fm pp
-4.1000000000000000e+01 4.1000000000000000e+01
0.0000000000000000e+00 2.0000000000000000e+02
-2.5000000000000000e-01 2.5000000000000000e-01
ITEM: ATOMS id type x y 
42537 6 34.8482 41.0747 
42536 6 34.142 41.7827 
42532 6 35.1082 42.0402 
42535 6 33.4358 42.4907 
42531 6 34.402 42.7483 
42528 6 35.3683 43.0058 
42534 6 32.7296 43.1987 
42530 6 33.6958 43.4563 
42533 6 32.0234 43.9067 
42529 6 32.9896 44.1643 
42527 6 34.6621 43.7138 
42525 6 35.6283 43.9714 
42526 6 33.9559 44.4218 
42524 6 34.9221 44.6794 
42523 6 35.8883 44.937 
ITEM: TIMESTEP
400000
ITEM: NUMBER OF ATOMS
15
ITEM: BOX BOUNDS ff fm pp
-4.1000000000000000e+01 4.1000000000000000e+01
0.0000000000000000e+00 2.0000000000000000e+02
-2.5000000000000000e-01 2.5000000000000000e-01
ITEM: ATOMS id type x y 
42537 6 35.1669 38.9393 
42536 6 34.5016 39.6859 
42532 6 35.4808 39.8887 
42535 6 33.8363 40.4326 
42531 6 34.8155 40.6354 
42534 6 33.1711 41.1792 
42528 6 35.7947 40.8382 
42530 6 34.1503 41.382 
42527 6 35.1295 41.5848 
42525 6 36.1087 41.7876 
42533 6 32.5058 41.9258 
42529 6 33.485 42.1286 
42526 6 34.4642 42.3314 
42524 6 35.4434 42.5342 
42523 6 36.4226 42.737 
ITEM: TIMESTEP
410000
ITEM: NUMBER OF ATOMS
15
ITEM: BOX BOUNDS ff fm pp
-4.1000000000000000e+01 4.1000000000000000e+01
0.0000000000000000e+00 2.0000000000000000e+02
-2.5000000000000000e-01 2.5000000000000000e-01
ITEM: ATOMS id type x y 
42537 6 35.4066 36.7214 
42536 6 34.7831 37.5032 
42532 6 35.7719 37.6522 
42535 6 34.1597 38.2851 
42531 6 35.1485 38.4341 
42528 6 36.1373 38.5831 
42534 6 33.5362 39.067 
42530 6 34.525 39.2159 
42527 6 35.5138 39.3649 
42533 6 32.9127 39.8488 
42529 6 33.9016 39.9978 
42525 6 36.5027 39.5139 
42526 6 34.8904 40.1468 
42524 6 35.8792 40.2958 
42523 6 36.868 40.4447 
ITEM: TIMESTEP
420000
ITEM: NUMBER OF ATOMS
15
ITEM: BOX BOUNDS ff fm pp
-4.1000000000000000e+01 4.1000000000000000e+01
0.0000000000000000e+00 2.0000000000000000e+02
-2.5000000000000000e-01 2.5000000000000000e-01
ITEM: ATOMS id type x y 
42537 6 35.5516 34.4001 
42536 6 34.9743 35.2166 
42532 6 35.9701 35.3083 
42535 6 34.3971 36.0332 
42531 6 35.3928 36.1248 
42528 6 36.3886 36.2165 
42534 6 33.8198 36.8497 
42530 6 34.8155 36.9414 
42527 6 35.8113 37.033 
42525 6 36.8071 37.1247 
42533 6 33.2425 37.6663 
42529 6 34.2383 37.7579 
42526 6 35.234 37.8496 
42524 6 36.2298 37.9412 
42523 6 37.2256 38.0329 
ITEM: TIMESTEP
430000
ITEM: NUMBER OF ATOMS
15
ITEM: BOX BOUNDS ff fm pp
-4.1000000000000000e+01 4.1000000000000000e+01
0.0000000000000000e+00 2.0000000000000000e+02
-2.5000000000000000e-01 2.5000000000000000e-01
ITEM: ATOMS id type x y 
42537 6 35.5747 31.9917 
42536 6 35.0536 32.8452 
42532 6 36.0533 32.8697 
42535 6 34.5326 33.6987 
42531 6 35.5322 33.7232 
42528 6 36.5319 33.7478 
42534 6 34.0115 34.5522 
42530 6 35.0111 34.5768 
42527 6 36.0108 34.6013 
42525 6 37.0105 34.6258 
42533 6 33.4904 35.4058 
42529 6 34.4901 35.4303 
42526 6 35.4897 35.4548 
42524 6 36.4894 35.4793 
42523 6 37.4891 35.5038 
ITEM: TIMESTEP
440000
ITEM: NUMBER OF ATOMS
15
ITEM: BOX BOUNDS ff fm pp
-4.1000000000000000e+01 4.1000000000000000e+01
0.0000000000000000e+00 2.0000000000000000e+02
-2.5000000000000000e-01 2.5000000000000000e-01
ITEM: ATOMS id type x y 
42537 6 35.4956 29.4969 
42536 6 35.0397 30.3869 
42532 6 36.0385 30.3367 
42535 6 34.5839 31.277 
42531 6 35.5826 31.2267 
42528 6 36.5813 31.1765 
42534 6 34.128 32.167 
42530 6 35.1267 32.1168 
42527 6 36.1255 32.0665 
42525 6 37.1242 32.0163 
42533 6 33.6722 33.0571 
42529 6 34.6709 33.0068 
42526 6 35.6696 32.9566 
42524 6 36.6683 32.9063 
42523 6 37.667 32.8561 
ITEM: TIMESTEP
450000
ITEM: NUMBER OF ATOMS
15
ITEM: BOX BOUNDS ff fm pp
-4.1000000000000000e+01 4.1000000000000000e+01
0.0000000000000000e+00 2.0000000000000000e+02
-2.5000000000000000e-01 2.5000000000000000e-01
ITEM: ATOMS id type x y 
42537 6 35.3283 26.9865 
42536 6 34.9484 27.9115 
42532 6 35.9394 27.778 
42528 6 36.5506 28.5695 
42535 6 34.5685 28.8366 
42531 6 35.5596 28.703 
42534 6 34.1886 29.7616 
42530 6 35.1797 29.6281 
42527 6 36.1707 29.4945 
42525 6 37.1617 29.361 
42524 6 36.7818 30.286 
42523 6 37.7728 30.1525 
42533 6 33.8088 30.6866 
42529 6 34.7998 30.5531 
42526 6 35.7908 30.4196 
ITEM: TIMESTEP
460000
ITEM: NUMBER OF ATOMS
15
ITEM: BOX BOUNDS ff fm pp
-4.1000000000000000e+01 4.1000000000000000e+01
0.0000000000000000e+00 2.0000000000000000e+02
-2.5000000000000000e-01 2.5000000000000000e-01
ITEM: ATOMS id type x y 
42537 6 34.987 24.6167 
42536 6 34.6989 25.5743 
42532 6 35.6722 25.345 
42528 6 36.3574 26.0733 
42535 6 34.4108 26.5319 
42531 6 35.3841 26.3026 
42530 6 35.096 27.2602 
42527 6 36.0693 27.0309 
42525 6 37.0427 26.8016 
42534 6 34.1227 27.4895 
42526 6 35.7812 27.9885 
42524 6 36.7546 27.7592 
42523 6 37.7279 27.5298 
42533 6 33.8346 28.4471 
42529 6 34.8079 28.2178 
ITEM: TIMESTEP
470000
ITEM: NUMBER OF ATOMS
15
ITEM: BOX BOUNDS ff fm pp
-4.1000000000000000e+01 4.1000000000000000e+01
0.0000000000000000e+00 2.0000000000000000e+02
-2.5000000000000000e-01 2.5000000000000000e-01
ITEM: ATOMS id type x y 
42537 6 34.5325 22.4343 
42532 6 35.2858 23.0919 
42536 6 34.3396 23.4155 
42528 6 36.0391 23.7496 
42535 6 34.1468 24.3968 
42531 6 35.093 24.0732 
42525 6 36.7925 24.4072 
42527 6 35.8463 24.7308 
42534 6 33.9539 25.378 
42530 6 34.9001 25.0544 
42524 6 36.5996 25.3884 
42523 6 37.5458 25.0648 
42529 6 34.7073 26.0356 
42526 6 35.6534 25.712 
42533 6 33.7611 26.3592 
ITEM: TIMESTEP
480000
ITEM: NUMBER OF ATOMS
15
ITEM: BOX BOUNDS ff fm pp
-4.1000000000000000e+01 4.1000000000000000e+01
0.0000000000000000e+00 2.0000000000000000e+02
-2.5000000000000000e-01 2.5000000000000000e-01
ITEM: ATOMS id type x y 
42537 6 33.8857 20.4885 
42532 6 34.7126 21.0507 
42536 6 33.8122 21.4857 
42531 6 34.6391 22.048 
42528 6 35.5395 21.613 
42535 6 33.7387 22.483 
42527 6 35.466 22.6103 
42525 6 36.3664 22.1753 
42530 6 34.5656 23.0453 
42524 6 36.2929 23.1726 
42523 6 37.1933 22.7376 
42534 6 33.6652 23.4803 
42526 6 35.3925 23.6076 
42529 6 34.4921 24.0426 
42533 6 33.5917 24.4776 
ITEM: TIMESTEP
490000
ITEM: NUMBER OF ATOMS
15
ITEM: BOX BOUNDS ff fm pp
-4.1000000000000000e+01 4.1000000000000000e+01
0.0000000000000000e+00 2.0000000000000000e+02
-2.5000000000000000e-01 2.5000000000000000e-01
ITEM: ATOMS id type x y 
42537 6 33.2393 18.8074 
42532 6 34.1295 19.2631 
42536 6 33.2898 19.8062 
42531 6 34.18 20.2618 
42528 6 35.0196 19.7187 
42525 6 35.9098 20.1743 
42535 6 33.3404 20.8049 
42527 6 35.0702 20.7174 
42523 6 36.7999 20.6299 
42530 6 34.2305 21.2605 
42524 6 35.9603 21.173 
42534 6 33.3909 21.8036 
42526 6 35.1207 21.7161 
42529 6 34.281 22.2592 
42533 6 33.4414 22.8023 
ITEM: TIMESTEP
500000
ITEM: NUMBER OF ATOMS
15
ITEM: BOX BOUNDS ff fm pp
-4.1000000000000000e+01 4.1000000000000000e+01
0.0000000000000000e+00 2.0000000000000000e+02
-2.5000000000000000e-01 2.5000000000000000e-01
ITEM: ATOMS id type x y 
42537 6 32.7784 17.2905 