ITEM: TIMESTEP
0
ITEM: NUMBER OF ATOMS
15
ITEM: BOX BOUNDS ff fm pp
-4.1000000000000000e+01 4.1000000000000000e+01
0.0000000000000000e+00 2.0000000000000000e+02
-2.5000000000000000e-01 2.5000000000000000e-01
ITEM: ATOMS id type x y 
42523 6 20 140 
42524 6 19.5 140.866 
42525 6 20.5 140.866 
42526 6 19 141.732 
42527 6 20 141.732 
42528 6 21 141.732 
42529 6 18.5 142.598 
42530 6 19.5 142.598 
42531 6 20.5 142.598 
42532 6 21.5 142.598 
42533 6 18 143.464 
42534 6 19 143.464 
42535 6 20 143.464 
42536 6 21 143.464 
42537 6 22 143.464 
ITEM: TIMESTEP
10000
ITEM: NUMBER OF ATOMS
15
ITEM: BOX BOUNDS ff fm pp
-4.1000000000000000e+01 4.1000000000000000e+01
0.0000000000000000e+00 2.0000000000000000e+02
-2.5000000000000000e-01 2.5000000000000000e-01
ITEM: ATOMS id type x y 
42523 6 20 139.875 
42524 6 19.5 140.741 
42525 6 20.5 140.741 
42526 6 19 141.607 
42527 6 20 141.607 
42528 6 21 141.607 
42529 6 18.5 142.473 
42530 6 19.5 142.473 
42531 6 20.5 142.473 
42532 6 21.5 142.473 
42533 6 18 143.339 
42534 6 19 143.339 
42535 6 20 143.339 
42536 6 21 143.339 
42537 6 22 143.339 
ITEM: TIMESTEP
20000
ITEM: NUMBER OF ATOMS
15
ITEM: BOX BOUNDS ff fm pp
-4.1000000000000000e+01 4.1000000000000000e+01
0.0000000000000000e+00 2.0000000000000000e+02
-2.5000000000000000e-01 2.5000000000000000e-01
ITEM: ATOMS id type x y 
42523 6 20 139.5 
42524 6 19.5 140.366 
42525 6 20.5 140.366 
42526 6 19 141.232 
42527 6 20 141.232 
42528 6 21 141.232 
42529 6 18.5 142.098 
42530 6 19.5 142.098 
42531 6 20.5 142.098 
42532 6 21.5 142.098 
42533 6 18 142.964 
42534 6 19 142.964 
42535 6 20 142.964 
42536 6 21 142.964 
42537 6 22 142.964 
ITEM: TIMESTEP
30000
ITEM: NUMBER OF ATOMS
15
ITEM: BOX BOUNDS ff fm pp
-4.1000000000000000e+01 4.1000000000000000e+01
0.0000000000000000e+00 2.0000000000000000e+02
-2.5000000000000000e-01 2.5000000000000000e-01
ITEM: ATOMS id type x y 
42523 6 20 138.875 
42524 6 19.5 139.741 
42525 6 20.5 139.741 
42526 6 19 140.607 
42527 6 20 140.607 
42528 6 21 140.607 
42529 6 18.5 141.473 
42530 6 19.5 141.473 
42531 6 20.5 141.473 
42532 6 21.5 141.473 
42533 6 18 142.339 
42534 6 19 142.339 
42535 6 20 142.339 
42536 6 21 142.339 
42537 6 22 142.339 
ITEM: TIMESTEP
40000
ITEM: NUMBER OF ATOMS
15
ITEM: BOX BOUNDS ff fm pp
-4.1000000000000000e+01 4.1000000000000000e+01
0.0000000000000000e+00 2.0000000000000000e+02
-2.5000000000000000e-01 2.5000000000000000e-01
ITEM: ATOMS id type x y 
42523 6 20 138 
42524 6 19.5 138.866 
42525 6 20.5 138.866 
42526 6 19 139.732 
42527 6 20 139.732 
42528 6 21 139.732 
42529 6 18.5 140.598 
42530 6 19.5 140.598 
42531 6 20.5 140.598 
42532 6 21.5 140.598 
42533 6 18 141.464 
42534 6 19 141.464 
42535 6 20 141.464 
42536 6 21 141.464 
42537 6 22 141.464 
ITEM: TIMESTEP
50000
ITEM: NUMBER OF ATOMS
15
ITEM: BOX BOUNDS ff fm pp
-4.1000000000000000e+01 4.1000000000000000e+01
0.0000000000000000e+00 2.0000000000000000e+02
-2.5000000000000000e-01 2.5000000000000000e-01
ITEM: ATOMS id type x y 
42523 6 20 136.875 
42524 6 19.5 137.741 
42525 6 20.5 137.741 
42526 6 19 138.607 
42527 6 20 138.607 
42528 6 21 138.607 
42529 6 18.5 139.473 
42530 6 19.5 139.473 
42531 6 20.5 139.473 
42532 6 21.5 139.473 
42533 6 18 140.339 
42534 6 19 140.339 
42535 6 20 140.339 
42536 6 21 140.339 
42537 6 22 140.339 
ITEM: TIMESTEP
60000
ITEM: NUMBER OF ATOMS
15
ITEM: BOX BOUNDS ff fm pp
-4.1000000000000000e+01 4.1000000000000000e+01
0.0000000000000000e+00 2.0000000000000000e+02
-2.5000000000000000e-01 2.5000000000000000e-01
ITEM: ATOMS id type x y 
42523 6 20 135.5 
42524 6 19.5 136.366 
42525 6 20.5 136.366 
42526 6 19 137.232 
42527 6 20 137.232 
42528 6 21 137.232 
42529 6 18.5 138.098 
42530 6 19.5 138.098 
42531 6 20.5 138.098 
42532 6 21.5 138.098 
42533 6 18 138.964 
42534 6 19 138.964 
42535 6 20 138.964 
42536 6 21 138.964 
42537 6 22 138.964 
ITEM: TIMESTEP
70000
ITEM: NUMBER OF ATOMS
15
ITEM: BOX BOUNDS ff fm pp
-4.1000000000000000e+01 4.1000000000000000e+01
0.0000000000000000e+00 2.0000000000000000e+02
-2.5000000000000000e-01 2.5000000000000000e-01
ITEM: ATOMS id type x y 
42523 6 20 133.875 
42524 6 19.5 134.741 
42525 6 20.5 134.741 
42526 6 19 135.607 
42527 6 20 135.607 
42528 6 21 135.607 
42529 6 18.5 136.473 
42530 6 19.5 136.473 
42531 6 20.5 136.473 
42532 6 21.5 136.473 
42533 6 18 137.339 
42534 6 19 137.339 
42535 6 20 137.339 
42536 6 21 137.339 
42537 6 22 137.339 
ITEM: TIMESTEP
80000
ITEM: NUMBER OF ATOMS
15
ITEM: BOX BOUNDS ff fm pp
-4.1000000000000000e+01 4.1000000000000000e+01
0.0000000000000000e+00 2.0000000000000000e+02
-2.5000000000000000e-01 2.5000000000000000e-01
ITEM: ATOMS id type x y 
42523 6 20 132 
42524 6 19.5 132.866 
42525 6 20.5 132.866 
42526 6 19 133.732 
42527 6 20 133.732 
42528 6 21 133.732 
42529 6 18.5 134.598 
42530 6 19.5 134.598 
42531 6 20.5 134.598 
42532 6 21.5 134.598 
42533 6 18 135.464 
42534 6 19 135.464 
42535 6 20 135.464 
42536 6 21 135.464 
42537 6 22 135.464 
ITEM: TIMESTEP
90000
ITEM: NUMBER OF ATOMS
15
ITEM: BOX BOUNDS ff fm pp
-4.1000000000000000e+01 4.1000000000000000e+01
0.0000000000000000e+00 2.0000000000000000e+02
-2.5000000000000000e-01 2.5000000000000000e-01
ITEM: ATOMS id type x y 
42523 6 20 129.875 
42524 6 19.5 130.741 
42525 6 20.5 130.741 
42526 6 19 131.607 
42527 6 20 131.607 
42528 6 21 131.607 
42529 6 18.5 132.473 
42530 6 19.5 132.473 
42531 6 20.5 132.473 
42532 6 21.5 132.473 
42533 6 18 133.339 
42534 6 19 133.339 
42535 6 20 133.339 
42536 6 21 133.339 
42537 6 22 133.339 
ITEM: TIMESTEP
100000
ITEM: NUMBER OF ATOMS
15
ITEM: BOX BOUNDS ff fm pp
-4.1000000000000000e+01 4.1000000000000000e+01
0.0000000000000000e+00 2.0000000000000000e+02
-2.5000000000000000e-01 2.5000000000000000e-01
ITEM: ATOMS id type x y 
42523 6 20 127.5 
42524 6 19.5 128.366 
42525 6 20.5 128.366 
42526 6 19 129.232 
42527 6 20 129.232 
42528 6 21 129.232 
42529 6 18.5 130.098 
42530 6 19.5 130.098 
42531 6 20.5 130.098 
42532 6 21.5 130.098 
42533 6 18 130.964 
42534 6 19 130.964 
42535 6 20 130.964 
42536 6 21 130.964 
42537 6 22 130.964 
ITEM: TIMESTEP
110000
ITEM: NUMBER OF ATOMS
15
ITEM: BOX BOUNDS ff fm pp
-4.1000000000000000e+01 4.1000000000000000e+01
0.0000000000000000e+00 2.0000000000000000e+02
-2.5000000000000000e-01 2.5000000000000000e-01
ITEM: ATOMS id type x y 
42523 6 20 124.875 
42524 6 19.5 125.741 
42525 6 20.5 125.741 
42526 6 19 126.607 
42527 6 20 126.607 
42528 6 21 126.607 
42529 6 18.5 127.473 
42530 6 19.5 127.473 
42531 6 20.5 127.473 
42532 6 21.5 127.473 
42533 6 18 128.339 
42534 6 19 128.339 
42535 6 20 128.339 
42536 6 21 128.339 
42537 6 22 128.339 
ITEM: TIMESTEP
120000
ITEM: NUMBER OF ATOMS
15
ITEM: BOX BOUNDS ff fm pp
-4.1000000000000000e+01 4.1000000000000000e+01
0.0000000000000000e+00 2.0000000000000000e+02
-2.5000000000000000e-01 2.5000000000000000e-01
ITEM: ATOMS id type x y 
42523 6 20 122 
42524 6 19.5 122.866 
42525 6 20.5 122.866 
42526 6 19 123.732 
42527 6 20 123.732 
42528 6 21 123.732 
42529 6 18.5 124.598 
42530 6 19.5 124.598 
42531 6 20.5 124.598 
42532 6 21.5 124.598 
42533 6 18 125.464 
42534 6 19 125.464 
42535 6 20 125.464 
42536 6 21 125.464 
42537 6 22 125.464 
ITEM: TIMESTEP
130000
ITEM: NUMBER OF ATOMS
15
ITEM: BOX BOUNDS ff fm pp
-4.1000000000000000e+01 4.1000000000000000e+01
0.0000000000000000e+00 2.0000000000000000e+02
-2.5000000000000000e-01 2.5000000000000000e-01
ITEM: ATOMS id type x y 
42537 6 22.0001 122.349 
42523 6 19.9979 118.886 
42524 6 19.4985 119.753 
42525 6 20.4985 119.752 
42526 6 18.999 120.619 
42527 6 19.999 120.618 
42528 6 20.999 120.618 
42529 6 18.4995 121.485 
42530 6 19.4995 121.485 
42531 6 20.4995 121.484 
42532 6 21.4995 121.483 
42533 6 18.0001 122.351 
42534 6 19.0001 122.351 
42535 6 20.0001 122.35 
42536 6 21.0001 122.35 
ITEM: TIMESTEP
140000
ITEM: NUMBER OF ATOMS
15
ITEM: BOX BOUNDS ff fm pp
-4.1000000000000000e+01 4.1000000000000000e+01
0.0000000000000000e+00 2.0000000000000000e+02
-2.5000000000000000e-01 2.5000000000000000e-01
ITEM: ATOMS id type x y 
42523 6 19.9873 115.594 
42524 6 19.4949 116.465 
42525 6 20.4948 116.456 
42526 6 19.0024 117.335 
42527 6 20.0024 117.326 
42528 6 21.0024 117.317 
42529 6 18.51 118.205 
42530 6 19.51 118.196 
42531 6 20.5099 118.188 
42532 6 21.5099 118.179 
42533 6 18.0176 119.075 
42534 6 19.0175 119.067 
42535 6 20.0175 119.058 
42536 6 21.0175 119.049 
42537 6 22.0174 119.041 
ITEM: TIMESTEP
150000
ITEM: NUMBER OF ATOMS
15
ITEM: BOX BOUNDS ff fm pp
-4.1000000000000000e+01 4.1000000000000000e+01
0.0000000000000000e+00 2.0000000000000000e+02
-2.5000000000000000e-01 2.5000000000000000e-01
ITEM: ATOMS id type x y 
42523 6 20.0201 112.27 
42524 6 19.5443 113.149 
42525 6 20.5439 113.121 
42526 6 19.0685 114.029 
42527 6 20.0681 114.001 
42528 6 21.0677 113.973 
42529 6 18.5927 114.908 
42530 6 19.5923 114.88 
42531 6 20.5919 114.853 
42532 6 21.5915 114.825 
42533 6 18.1168 115.788 
42534 6 19.1165 115.76 
42535 6 20.1161 115.732 
42536 6 21.1157 115.705 
42537 6 22.1153 115.677 
ITEM: TIMESTEP
160000
ITEM: NUMBER OF ATOMS
15
ITEM: BOX BOUNDS ff fm pp
-4.1000000000000000e+01 4.1000000000000000e+01
0.0000000000000000e+00 2.0000000000000000e+02
-2.5000000000000000e-01 2.5000000000000000e-01
ITEM: ATOMS id type x y 
42523 6 20.1983 108.947 
42524 6 19.7312 109.831 
42525 6 20.7305 109.794 
42526 6 19.264 110.716 
42527 6 20.2633 110.678 
42528 6 21.2626 110.641 
42529 6 18.7969 111.6 
42530 6 19.7962 111.562 
42531 6 20.7955 111.525 
42532 6 21.7948 111.487 
42533 6 18.3297 112.484 
42534 6 19.329 112.446 
42535 6 20.3283 112.409 
42536 6 21.3276 112.371 
42537 6 22.3269 112.334 
ITEM: TIMESTEP
170000
ITEM: NUMBER OF ATOMS
15
ITEM: BOX BOUNDS ff fm pp
-4.1000000000000000e+01 4.1000000000000000e+01
0.0000000000000000e+00 2.0000000000000000e+02
-2.5000000000000000e-01 2.5000000000000000e-01
ITEM: ATOMS id type x y 
42523 6 20.5616 105.703 
42524 6 20.0814 106.58 
42525 6 21.0812 106.557 
42526 6 19.6012 107.457 
42527 6 20.601 107.434 
42528 6 21.6007 107.411 
42529 6 19.121 108.334 
42530 6 20.1208 108.311 
42531 6 21.1205 108.288 
42532 6 22.1202 108.266 
42533 6 18.6408 109.211 
42534 6 19.6406 109.188 
42535 6 20.6403 109.166 
42536 6 21.6401 109.143 
42537 6 22.6398 109.12 
ITEM: TIMESTEP
180000
ITEM: NUMBER OF ATOMS
15
ITEM: BOX BOUNDS ff fm pp
-4.1000000000000000e+01 4.1000000000000000e+01
0.0000000000000000e+00 2.0000000000000000e+02
-2.5000000000000000e-01 2.5000000000000000e-01
ITEM: ATOMS id type x y 
42523 6 21.0089 102.413 
42524 6 20.5124 103.281 
42525 6 21.5124 103.277 
42526 6 20.0159 104.149 
42527 6 21.0159 104.145 
42528 6 22.0159 104.141 
42529 6 19.5194 105.017 
42530 6 20.5194 105.013 
42531 6 21.5194 105.009 
42532 6 22.5194 105.005 
42533 6 19.0229 105.885 
42534 6 20.0229 105.881 
42535 6 21.0229 105.877 
42536 6 22.0229 105.873 
42537 6 23.0229 105.869 
ITEM: TIMESTEP
190000
ITEM: NUMBER OF ATOMS
15
ITEM: BOX BOUNDS ff fm pp
-4.1000000000000000e+01 4.1000000000000000e+01
0.0000000000000000e+00 2.0000000000000000e+02
-2.5000000000000000e-01 2.5000000000000000e-01
ITEM: ATOMS id type x y 
42523 6 21.5321 99.0802 
42524 6 21.0151 99.9362 
42525 6 22.0149 99.9559 
42526 6 20.4981 100.792 
42527 6 21.4979 100.812 
42528 6 22.4977 100.832 
42529 6 19.9811 101.648 
42530 6 20.9809 101.668 
42531 6 21.9807 101.688 
42532 6 22.9805 101.707 
42533 6 19.4641 102.504 
42534 6 20.4639 102.524 
42535 6 21.4637 102.544 
42536 6 22.4636 102.563 
42537 6 23.4634 102.583 
ITEM: TIMESTEP
200000
ITEM: NUMBER OF ATOMS
15
ITEM: BOX BOUNDS ff fm pp
-4.1000000000000000e+01 4.1000000000000000e+01
0.0000000000000000e+00 2.0000000000000000e+02
-2.5000000000000000e-01 2.5000000000000000e-01
ITEM: ATOMS id type x y 
42523 6 22.1369 95.7308 
42524 6 21.5993 96.5739 
42525 6 22.5983 96.618 
42526 6 21.0616 97.417 
42527 6 22.0606 97.4611 
42528 6 23.0596 97.5052 
42529 6 20.5239 98.2602 
42530 6 21.5229 98.3042 
42531 6 22.522 98.3483 
42532 6 23.521 98.3924 
42533 6 19.9862 99.1033 
42534 6 20.9852 99.1474 
42535 6 21.9843 99.1914 
42536 6 22.9833 99.2355 
42537 6 23.9823 99.2796 
ITEM: TIMESTEP
210000
ITEM: NUMBER OF ATOMS
15
ITEM: BOX BOUNDS ff fm pp
-4.1000000000000000e+01 4.1000000000000000e+01
0.0000000000000000e+00 2.0000000000000000e+02
-2.5000000000000000e-01 2.5000000000000000e-01
ITEM: ATOMS id type x y 
42523 6 22.7784 92.3947 
42524 6 22.2277 93.2294 
42525 6 23.2259 93.2889 
42526 6 21.6771 94.0641 
42527 6 22.6753 94.1236 
42528 6 23.6735 94.1831 
42529 6 21.1264 94.8988 
42530 6 22.1246 94.9583 
42531 6 23.1229 95.0178 
42532 6 24.1211 95.0773 
42533 6 20.5758 95.7335 
42534 6 21.574 95.793 
42535 6 22.5722 95.8526 
42536 6 23.5705 95.9121 
42537 6 24.5687 95.9716 
ITEM: TIMESTEP
220000
ITEM: NUMBER OF ATOMS
15
ITEM: BOX BOUNDS ff fm pp
-4.1000000000000000e+01 4.1000000000000000e+01
0.0000000000000000e+00 2.0000000000000000e+02
-2.5000000000000000e-01 2.5000000000000000e-01
ITEM: ATOMS id type x y 
42523 6 23.4525 89.0726 
42524 6 22.8963 89.9036 
42525 6 23.8941 89.9698 
42526 6 22.34 90.7346 
42527 6 23.3378 90.8008 
42528 6 24.3356 90.867 
42529 6 21.7838 91.5656 
42530 6 22.7816 91.6318 
42531 6 23.7794 91.698 
42532 6 24.7772 91.7642 
42533 6 21.2275 92.3965 
42534 6 22.2253 92.4628 
42535 6 23.2231 92.529 
42536 6 24.2209 92.5952 
42537 6 25.2187 92.6614 
ITEM: TIMESTEP
230000
ITEM: NUMBER OF ATOMS
15
ITEM: BOX BOUNDS ff fm pp
-4.1000000000000000e+01 4.1000000000000000e+01
0.0000000000000000e+00 2.0000000000000000e+02
-2.5000000000000000e-01 2.5000000000000000e-01
ITEM: ATOMS id type x y 
42523 6 24.1404 85.7687 
42524 6 23.5847 86.6 
42525 6 24.5826 86.6656 
42526 6 23.029 87.4314 
42527 6 24.0269 87.4969 
42528 6 25.0247 87.5625 
42529 6 22.4733 88.2627 
42530 6 23.4712 88.3283 
42531 6 24.469 88.3939 
42532 6 25.4669 88.4594 
42533 6 21.9176 89.0941 
42534 6 22.9155 89.1596 
42535 6 23.9133 89.2252 
42536 6 24.9111 89.2908 
42537 6 25.909 89.3563 
ITEM: TIMESTEP
240000
ITEM: NUMBER OF ATOMS
15
ITEM: BOX BOUNDS ff fm pp
-4.1000000000000000e+01 4.1000000000000000e+01
0.0000000000000000e+00 2.0000000000000000e+02
-2.5000000000000000e-01 2.5000000000000000e-01
ITEM: ATOMS id type x y 
42523 6 24.8351 82.449 
42524 6 24.2861 83.2848 
42525 6 25.2845 83.3423 
42526 6 23.7371 84.1206 
42527 6 24.7355 84.1781 
42528 6 25.7338 84.2356 
42529 6 23.1881 84.9564 
42530 6 24.1865 85.0139 
42531 6 25.1848 85.0714 
42532 6 26.1832 85.129 
42533 6 22.6391 85.7922 
42534 6 23.6375 85.8497 
42535 6 24.6358 85.9072 
42536 6 25.6342 85.9648 
42537 6 26.6325 86.0223 
ITEM: TIMESTEP
250000
ITEM: NUMBER OF ATOMS
15
ITEM: BOX BOUNDS ff fm pp
-4.1000000000000000e+01 4.1000000000000000e+01
0.0000000000000000e+00 2.0000000000000000e+02
-2.5000000000000000e-01 2.5000000000000000e-01
ITEM: ATOMS id type x y 
42523 6 25.5351 79.1259 
42524 6 24.9934 79.9664 
42525 6 25.9922 80.0153 
42526 6 24.4516 80.8069 
42527 6 25.4504 80.8558 
42528 6 26.4492 80.9048 
42529 6 23.9098 81.6474 
42530 6 24.9086 81.6963 
42531 6 25.9074 81.7453 
42532 6 26.9062 81.7942 
42533 6 23.368 82.4879 
42534 6 24.3668 82.5368 
42535 6 25.3656 82.5858 
42536 6 26.3644 82.6347 
42537 6 27.3632 82.6836 
ITEM: TIMESTEP
260000
ITEM: NUMBER OF ATOMS
15
ITEM: BOX BOUNDS ff fm pp
-4.1000000000000000e+01 4.1000000000000000e+01
0.0000000000000000e+00 2.0000000000000000e+02
-2.5000000000000000e-01 2.5000000000000000e-01
ITEM: ATOMS id type x y 
42523 6 26.21 75.8065 
42524 6 25.6796 76.6542 
42525 6 26.679 76.6897 
42526 6 25.1492 77.5019 
42527 6 26.1485 77.5374 
42528 6 27.1479 77.5729 
42529 6 24.6188 78.3496 
42530 6 25.6181 78.3851 
42531 6 26.6175 78.4206 
42532 6 27.6169 78.4561 
42533 6 24.0883 79.1974 
42534 6 25.0877 79.2328 
42535 6 26.0871 79.2683 
42536 6 27.0865 79.3038 
42537 6 28.0858 79.3393 
ITEM: TIMESTEP
270000
ITEM: NUMBER OF ATOMS
15
ITEM: BOX BOUNDS ff fm pp
-4.1000000000000000e+01 4.1000000000000000e+01
0.0000000000000000e+00 2.0000000000000000e+02
-2.5000000000000000e-01 2.5000000000000000e-01
ITEM: ATOMS id type x y 
42523 6 26.919 72.5161 
42524 6 26.3928 73.3664 
42525 6 27.3923 73.3969 
42526 6 25.8665 74.2167 
42527 6 26.8661 74.2472 
42528 6 27.8656 74.2778 
42529 6 25.3403 75.067 
42530 6 26.3398 75.0976 
42531 6 27.3394 75.1281 
42532 6 28.3389 75.1587 
42533 6 24.814 75.9173 
42534 6 25.8136 75.9479 
42535 6 26.8131 75.9784 
42536 6 27.8126 76.009 
42537 6 28.8122 76.0396 
ITEM: TIMESTEP
280000
ITEM: NUMBER OF ATOMS
15
ITEM: BOX BOUNDS ff fm pp
-4.1000000000000000e+01 4.1000000000000000e+01
0.0000000000000000e+00 2.0000000000000000e+02
-2.5000000000000000e-01 2.5000000000000000e-01
ITEM: ATOMS id type x y 
42523 6 27.6284 69.2915 
42524 6 27.1075 70.1451 
42525 6 28.1073 70.1693 
42526 6 26.5867 70.9987 
42527 6 27.5864 71.023 
42528 6 28.5861 71.0472 
42529 6 26.0659 71.8524 
42530 6 27.0656 71.8766 
42531 6 28.0653 71.9008 
42532 6 29.065 71.925 
42533 6 25.5451 72.706 
42534 6 26.5448 72.7302 
42535 6 27.5445 72.7544 
42536 6 28.5442 72.7787 
42537 6 29.5439 72.8029 
ITEM: TIMESTEP
290000
ITEM: NUMBER OF ATOMS
15
ITEM: BOX BOUNDS ff fm pp
-4.1000000000000000e+01 4.1000000000000000e+01
0.0000000000000000e+00 2.0000000000000000e+02
-2.5000000000000000e-01 2.5000000000000000e-01
ITEM: ATOMS id type x y 
42523 6 28.3098 66.1142 
42524 6 27.7895 66.9682 
42525 6 28.7893 66.9917 
42526 6 27.2693 67.8222 
42527 6 28.269 67.8457 
42528 6 29.2688 67.8692 
42529 6 26.7491 68.6762 
42530 6 27.7488 68.6997 
42531 6 28.7485 68.7232 
42532 6 29.7483 68.7467 
42533 6 26.2289 69.5302 
42534 6 27.2286 69.5537 
42535 6 28.2283 69.5772 
42536 6 29.228 69.6007 
42537 6 30.2277 69.6242 
ITEM: TIMESTEP
300000
ITEM: NUMBER OF ATOMS
15
ITEM: BOX BOUNDS ff fm pp
-4.1000000000000000e+01 4.1000000000000000e+01
0.0000000000000000e+00 2.0000000000000000e+02
-2.5000000000000000e-01 2.5000000000000000e-01
ITEM: ATOMS id type x y 
42523 6 29.0314 62.9937 
42524 6 28.5017 63.8418 
42525 6 29.5011 63.8765 
42526 6 27.972 64.69 
42527 6 28.9714 64.7246 
42528 6 29.9708 64.7592 
42529 6 27.4423 65.5382 
42530 6 28.4417 65.5728 
42531 6 29.4411 65.6074 
42532 6 30.4406 65.642 
42536 6 29.9109 66.4902 
42535 6 28.9115 66.4556 
42537 6 30.9103 66.5248 
42533 6 26.9127 66.3864 
42534 6 27.9121 66.421 
ITEM: TIMESTEP
310000
ITEM: NUMBER OF ATOMS
15
ITEM: BOX BOUNDS ff fm pp
-4.1000000000000000e+01 4.1000000000000000e+01
0.0000000000000000e+00 2.0000000000000000e+02
-2.5000000000000000e-01 2.5000000000000000e-01
ITEM: ATOMS id type x y 
42523 6 29.8229 59.9811 
42524 6 29.2658 60.8115 
42525 6 30.2635 60.8787 
42526 6 28.7087 61.642 
42527 6 29.7065 61.7092 
42528 6 30.7042 61.7764 
42529 6 28.1517 62.4724 
42530 6 29.1494 62.5396 
42531 6 30.1471 62.6068 
42532 6 31.1449 62.674 
42533 6 27.5946 63.3029 
42534 6 28.5923 63.3701 
42535 6 29.5901 63.4373 
42536 6 30.5878 63.5045 
42537 6 31.5856 63.5717 
ITEM: TIMESTEP
320000
ITEM: NUMBER OF ATOMS
15
ITEM: BOX BOUNDS ff fm pp
-4.1000000000000000e+01 4.1000000000000000e+01
0.0000000000000000e+00 2.0000000000000000e+02
-2.5000000000000000e-01 2.5000000000000000e-01
ITEM: ATOMS id type x y 
42523 6 30.566 57.0866 
42524 6 29.9999 57.9109 
42525 6 30.9968 57.989 
42526 6 29.4338 58.7352 
42527 6 30.4307 58.8133 
42528 6 31.4277 58.8914 
42529 6 28.8676 59.5595 
42530 6 29.8646 59.6376 
42531 6 30.8615 59.7157 
42532 6 31.8585 59.7938 
42533 6 28.3015 60.3837 
42534 6 29.2985 60.4619 
42535 6 30.2954 60.54 
42536 6 31.2924 60.6181 
42537 6 32.2893 60.6962 
ITEM: TIMESTEP
330000
ITEM: NUMBER OF ATOMS
15
ITEM: BOX BOUNDS ff fm pp
-4.1000000000000000e+01 4.1000000000000000e+01
0.0000000000000000e+00 2.0000000000000000e+02
-2.5000000000000000e-01 2.5000000000000000e-01
ITEM: ATOMS id type x y 
42523 6 31.3569 54.3186 
42524 6 30.7754 55.1321 
42525 6 31.7707 55.229 
42526 6 30.1939 55.9456 
42527 6 31.1892 56.0425 
42528 6 32.1845 56.1393 
42529 6 29.6123 56.7591 
42530 6 30.6076 56.856 
42531 6 31.6029 56.9528 
42532 6 32.5982 57.0497 
42533 6 29.0308 57.5726 
42534 6 30.0261 57.6695 
42535 6 31.0214 57.7663 
42536 6 32.0167 57.8632 
42537 6 33.012 57.9601 
ITEM: TIMESTEP
340000
ITEM: NUMBER OF ATOMS
15
ITEM: BOX BOUNDS ff fm pp
-4.1000000000000000e+01 4.1000000000000000e+01
0.0000000000000000e+00 2.0000000000000000e+02
-2.5000000000000000e-01 2.5000000000000000e-01
ITEM: ATOMS id type x y 
42523 6 32.1902 51.7272 
42524 6 31.5736 52.5144 
42525 6 32.5637 52.6548 
42526 6 30.957 53.3017 
42527 6 31.9471 53.442 
42528 6 32.9372 53.5824 
42529 6 30.3404 54.0889 
42530 6 31.3305 54.2293 
42531 6 32.3206 54.3696 
42533 6 29.7238 54.8762 
42534 6 30.7139 55.0165 
42532 6 33.3107 54.51 
42535 6 31.704 55.1569 
42536 6 32.6941 55.2972 
42537 6 33.6842 55.4376 
ITEM: TIMESTEP
350000
ITEM: NUMBER OF ATOMS
15
ITEM: BOX BOUNDS ff fm pp
-4.1000000000000000e+01 4.1000000000000000e+01
0.0000000000000000e+00 2.0000000000000000e+02
-2.5000000000000000e-01 2.5000000000000000e-01
ITEM: ATOMS id type x y 
42523 6 33.0472 49.2721 
42524 6 32.3804 50.0173 
42525 6 33.3592 50.2222 
42526 6 31.7136 50.7625 
42527 6 32.6924 50.9674 
42528 6 33.6712 51.1722 
42529 6 31.0468 51.5077 
42530 6 32.0256 51.7126 
42531 6 33.0044 51.9174 
42533 6 30.38 52.2529 
42534 6 31.3588 52.4578 
42532 6 33.9831 52.1223 
42535 6 32.3375 52.6626 
42536 6 33.3163 52.8675 
42537 6 34.2951 53.0724 
ITEM: TIMESTEP
360000
ITEM: NUMBER OF ATOMS
15
ITEM: BOX BOUNDS ff fm pp
-4.1000000000000000e+01 4.1000000000000000e+01
0.0000000000000000e+00 2.0051200744064562e+02
-2.5000000000000000e-01 2.5000000000000000e-01
ITEM: ATOMS id type x y 
42523 6 33.8882 46.9675 
42524 6 33.1693 47.6626 
42525 6 34.1307 47.9377 
42526 6 32.4503 48.3576 
42529 6 31.7314 49.0527 
42527 6 33.4118 48.6327 
42528 6 34.3732 48.9078 
42533 6 31.0125 49.7478 
42530 6 32.6928 49.3278 
42531 6 33.6543 49.6028 
42534 6 31.9739 50.0228 
42535 6 32.9353 50.2979 
42532 6 34.6157 49.8779 
42536 6 33.8968 50.573 
42537 6 34.8582 50.848 
ITEM: TIMESTEP
370000
ITEM: NUMBER OF ATOMS
15
ITEM: BOX BOUNDS ff fm pp
-4.1000000000000000e+01 4.1000000000000000e+01
0.0000000000000000e+00 2.0101914256289209e+02
-2.5000000000000000e-01 2.5000000000000000e-01
ITEM: ATOMS id type x y 
42523 6 34.7593 44.8151 
42524 6 33.9725 45.4323 
42526 6 33.1857 46.0495 
42525 6 34.9004 45.8051 
42529 6 32.3989 46.6667 
42527 6 34.1136 46.4223 
42528 6 35.0415 46.7951 
42533 6 31.6121 47.2838 
42530 6 33.3268 47.0395 
42531 6 34.2547 47.4122 
42534 6 32.54 47.6566 
42535 6 33.4679 48.0294 
42532 6 35.1826 47.785 
42536 6 34.3958 48.4022 
42537 6 35.3238 48.775 
ITEM: TIMESTEP
380000
ITEM: NUMBER OF ATOMS
15
ITEM: BOX BOUNDS ff fm pp
-4.1000000000000000e+01 4.1000000000000000e+01
0.0000000000000000e+00 2.0128162966956086e+02
-2.5000000000000000e-01 2.5000000000000000e-01
ITEM: ATOMS id type x y 
42523 6 35.6334 42.8307 
42526 6 33.9136 43.8516 
42524 6 34.7735 43.3411 
42525 6 35.6455 43.8306 
42529 6 33.0537 44.362 
42527 6 34.7856 44.341 
42533 6 32.1938 44.8724 
42530 6 33.9257 44.8515 
42528 6 35.6576 44.8305 
42534 6 33.0658 45.3619 
42531 6 34.7978 45.341 
42535 6 33.9379 45.8514 
42536 6 34.8099 46.3409 
42532 6 35.6698 45.8304 
42537 6 35.6819 46.8303 
ITEM: TIMESTEP
390000
ITEM: NUMBER OF ATOMS
15
ITEM: BOX BOUNDS ff fm pp
-4.1000000000000000e+01 4.1000000000000000e+01
0.0000000000000000e+00 2.0129083946787219e+02
-2.5000000000000000e-01 2.5000000000000000e-01
ITEM: ATOMS id type x y 
42523 6 36.4375 40.9072 
42524 6 35.5175 41.2991 
42529 6 33.6775 42.0829 
42526 6 34.5975 41.691 
42525 6 36.3169 41.8999 
42533 6 32.7575 42.4748 
42530 6 34.4769 42.6837 
42527 6 35.3969 42.2918 
42534 6 33.5569 43.0756 
42531 6 35.2763 43.2845 
42528 6 36.1963 42.8926 
42535 6 34.3563 43.6764 
42532 6 36.0757 43.8853 
42536 6 35.1557 44.2772 
42537 6 35.9551 44.878 
ITEM: TIMESTEP
400000
ITEM: NUMBER OF ATOMS
15
ITEM: BOX BOUNDS ff fm pp
-4.1000000000000000e+01 4.1000000000000000e+01
0.0000000000000000e+00 2.0104982978455325e+02
-2.5000000000000000e-01 2.5000000000000000e-01
ITEM: ATOMS id type x y 
42523 6 37.1581 38.992 
42526 6 35.2323 39.5317 
42524 6 36.1952 39.2618 
42533 6 33.3065 40.0714 
42529 6 34.2694 39.8016 
42527 6 35.9475 40.2307 
42525 6 36.9103 39.9608 
42534 6 34.0217 40.7704 
42530 6 34.9846 40.5005 
42531 6 35.6997 41.1995 
42528 6 36.6626 40.9296 
42535 6 34.7369 41.4693 
42532 6 36.4149 41.8984 
42536 6 35.452 42.1683 
42537 6 36.1672 42.8672 
ITEM: TIMESTEP
410000
ITEM: NUMBER OF ATOMS
15
ITEM: BOX BOUNDS ff fm pp
-4.1000000000000000e+01 4.1000000000000000e+01
0.0000000000000000e+00 2.0055691270786426e+02
-2.5000000000000000e-01 2.5000000000000000e-01
ITEM: ATOMS id type x y 
42523 6 37.8208 37.0542 
42533 6 33.8669 37.659 
42529 6 34.8554 37.5078 
42526 6 35.8439 37.3566 
42524 6 36.8323 37.2054 
42530 6 35.4806 38.2882 
42527 6 36.469 38.1371 
42525 6 37.4575 37.9859 
42534 6 34.4921 38.4394 
42528 6 37.0942 38.9175 
42535 6 35.1173 39.2199 
42531 6 36.1058 39.0687 
42536 6 35.7425 40.0004 
42532 6 36.731 39.8492 
42537 6 36.3677 40.7808 
ITEM: TIMESTEP
420000
ITEM: NUMBER OF ATOMS
15
ITEM: BOX BOUNDS ff fm pp
-4.1000000000000000e+01 4.1000000000000000e+01
0.0000000000000000e+00 2.0000000000000000e+02
-2.5000000000000000e-01 2.5000000000000000e-01
ITEM: ATOMS id type x y 
42529 6 35.4073 35.1774 
42526 6 36.4065 35.1381 
42524 6 37.4057 35.0988 
42523 6 38.4049 35.0595 
42533 6 34.4081 35.2167 
42534 6 34.9418 36.0624 
42530 6 35.941 36.0231 
42527 6 36.9402 35.9838 
42525 6 37.9394 35.9445 
42535 6 35.4754 36.9081 
42531 6 36.4746 36.8688 
42528 6 37.4738 36.8295 
42536 6 36.0091 37.7538 
42532 6 37.0083 37.7145 
42537 6 36.5427 38.5995 
ITEM: TIMESTEP
430000
ITEM: NUMBER OF ATOMS
15
ITEM: BOX BOUNDS ff fm pp
-4.1000000000000000e+01 4.1000000000000000e+01
0.0000000000000000e+00 2.0000000000000000e+02
-2.5000000000000000e-01 2.5000000000000000e-01
ITEM: ATOMS id type x y 
42533 6 34.9063 32.7006 
42529 6 35.9038 32.771 
42526 6 36.9013 32.8414 
42524 6 37.8988 32.9118 
42523 6 38.8963 32.9822 
42534 6 35.3441 33.5997 
42530 6 36.3416 33.6701 
42527 6 37.3391 33.7405 
42525 6 38.3366 33.8109 
42535 6 35.782 34.4988 
42531 6 36.7795 34.5692 
42528 6 37.777 34.6396 
42536 6 36.2198 35.3978 
42532 6 37.2173 35.4682 
42537 6 36.6576 36.2969 
ITEM: TIMESTEP
440000
ITEM: NUMBER OF ATOMS
15
ITEM: BOX BOUNDS ff fm pp
-4.1000000000000000e+01 4.1000000000000000e+01
0.0000000000000000e+00 2.0000000000000000e+02
-2.5000000000000000e-01 2.5000000000000000e-01
ITEM: ATOMS id type x y 
42533 6 35.3082 30.1759 
42529 6 36.2951 30.3376 
42526 6 37.2819 30.4993 
42524 6 38.2687 30.6609 
42523 6 39.2555 30.8226 
42534 6 35.6617 31.1114 
42530 6 36.6485 31.2731 
42527 6 37.6353 31.4347 
42525 6 38.6221 31.5964 
42535 6 36.0151 32.0469 
42531 6 37.0019 32.2085 
42528 6 37.9887 32.3702 
42536 6 36.3685 32.9823 
42532 6 37.3554 33.144 
42537 6 36.722 33.9178 
ITEM: TIMESTEP
450000
ITEM: NUMBER OF ATOMS
15
ITEM: BOX BOUNDS ff fm pp
-4.1000000000000000e+01 4.1000000000000000e+01
0.0000000000000000e+00 2.0000000000000000e+02
-2.5000000000000000e-01 2.5000000000000000e-01
ITEM: ATOMS id type x y 
42533 6 35.5935 27.6745 
42529 6 36.5663 27.9063 
42526 6 37.539 28.1381 
42524 6 38.5117 28.37 
42523 6 39.4845 28.6018 
42534 6 35.8791 28.6328 
42530 6 36.8519 28.8646 
42527 6 37.8246 29.0965 
42535 6 36.1648 29.5912 
42525 6 38.7973 29.3283 
42531 6 37.1375 29.823 
42528 6 38.1102 30.0548 
42536 6 36.4504 30.5495 
42532 6 37.4231 30.7813 
42537 6 36.736 31.5078 
ITEM: TIMESTEP
460000
ITEM: NUMBER OF ATOMS
15
ITEM: BOX BOUNDS ff fm pp
-4.1000000000000000e+01 4.1000000000000000e+01
0.0000000000000000e+00 2.0000000000000000e+02
-2.5000000000000000e-01 2.5000000000000000e-01
ITEM: ATOMS id type x y 
42533 6 35.8083 25.1748 
42529 6 36.7607 25.4795 
42534 6 36.0206 26.152 
42526 6 37.7131 25.7842 
42524 6 38.6655 26.0889 
42530 6 36.973 26.4567 
42527 6 37.9254 26.7614 
42523 6 39.6179 26.3937 
42535 6 36.2329 27.1292 
42525 6 38.8778 27.0661 
42531 6 37.1853 27.4339 
42528 6 38.1377 27.7386 
42536 6 36.4452 28.1064 
42532 6 37.3977 28.4111 
42537 6 36.6576 29.0836 
ITEM: TIMESTEP
470000
ITEM: NUMBER OF ATOMS
15
ITEM: BOX BOUNDS ff fm pp
-4.1000000000000000e+01 4.1000000000000000e+01
0.0000000000000000e+00 2.0000000000000000e+02
-2.5000000000000000e-01 2.5000000000000000e-01
ITEM: ATOMS id type x y 
42533 6 35.8846 22.7527 
42529 6 36.8112 23.1287 
42534 6 36.0223 23.7431 
42526 6 37.7378 23.5047 
42530 6 36.9488 24.1192 
42524 6 38.6643 23.8808 
42523 6 39.5909 24.2568 
42535 6 36.1599 24.7336 
42527 6 37.8754 24.4952 
42525 6 38.802 24.8712 
42531 6 37.0865 25.1097 
42528 6 38.0131 25.4857 
42536 6 36.2976 25.7241 
42532 6 37.2241 26.1001 
42537 6 36.4352 26.7146 
ITEM: TIMESTEP
480000
ITEM: NUMBER OF ATOMS
15
ITEM: BOX BOUNDS ff fm pp
-4.1000000000000000e+01 4.1000000000000000e+01
0.0000000000000000e+00 2.0000000000000000e+02
-2.5000000000000000e-01 2.5000000000000000e-01
ITEM: ATOMS id type x y 
42533 6 35.6721 20.6724 
42529 6 36.5966 21.0535 
42526 6 37.5211 21.4346 
42534 6 35.8043 21.6636 
42530 6 36.7288 22.0447 
42524 6 38.4456 21.8156 
42535 6 35.9366 22.6548 
42527 6 37.6534 22.4258 
42523 6 39.3702 22.1967 
42531 6 36.8611 23.0359 
42525 6 38.5779 22.8069 
42536 6 36.0688 23.6461 
42528 6 37.7856 23.417 
42532 6 36.9934 24.0271 
42537 6 36.2011 24.6373 
ITEM: TIMESTEP
490000
ITEM: NUMBER OF ATOMS
15
ITEM: BOX BOUNDS ff fm pp
-4.1000000000000000e+01 4.1000000000000000e+01
0.0000000000000000e+00 2.0000000000000000e+02
-2.5000000000000000e-01 2.5000000000000000e-01
ITEM: ATOMS id type x y 
42533 6 35.2152 19.0894 
42529 6 36.1568 19.4262 
42534 6 35.3944 20.0733 
42526 6 37.0983 19.7629 
42524 6 38.0399 20.0996 
42530 6 36.336 20.41 
42527 6 37.2775 20.7467 
42523 6 38.9815 20.4364 
42535 6 35.5736 21.0571 
42531 6 36.5151 21.3938 
42525 6 38.2191 21.0835 
42536 6 35.7528 22.0409 
42528 6 37.4567 21.7305 
42532 6 36.6943 22.3776 
42537 6 35.9319 23.0247 
ITEM: TIMESTEP
500000
ITEM: NUMBER OF ATOMS
15
ITEM: BOX BOUNDS ff fm pp
-4.1000000000000000e+01 4.1000000000000000e+01
0.0000000000000000e+00 2.0000000000000000e+02
-2.5000000000000000e-01 2.5000000000000000e-01
ITEM: ATOMS id type x y 
42533 6 34.6384 17.888 
42529 6 35.6079 18.1331 
42526 6 36.5774 18.3783 