ITEM: TIMESTEP
0
ITEM: NUMBER OF ATOMS
15
ITEM: BOX BOUNDS ff fm pp
-4.1000000000000000e+01 4.1000000000000000e+01
0.0000000000000000e+00 2.0000000000000000e+02
-2.5000000000000000e-01 2.5000000000000000e-01
ITEM: ATOMS id type x y 
42463 2 -20 140 
42464 2 -20.5 140.866 
42465 2 -19.5 140.866 
42466 2 -21 141.732 
42467 2 -20 141.732 
42468 2 -19 141.732 
42469 2 -21.5 142.598 
42470 2 -20.5 142.598 
42471 2 -19.5 142.598 
42472 2 -18.5 142.598 
42473 2 -22 143.464 
42474 2 -21 143.464 
42475 2 -20 143.464 
42476 2 -19 143.464 
42477 2 -18 143.464 
ITEM: TIMESTEP
10000
ITEM: NUMBER OF ATOMS
15
ITEM: BOX BOUNDS ff fm pp
-4.1000000000000000e+01 4.1000000000000000e+01
0.0000000000000000e+00 2.0000000000000000e+02
-2.5000000000000000e-01 2.5000000000000000e-01
ITEM: ATOMS id type x y 
42463 2 -20 139.875 
42464 2 -20.5 140.741 
42465 2 -19.5 140.741 
42466 2 -21 141.607 
42467 2 -20 141.607 
42468 2 -19 141.607 
42469 2 -21.5 142.473 
42470 2 -20.5 142.473 
42471 2 -19.5 142.473 
42472 2 -18.5 142.473 
42473 2 -22 143.339 
42474 2 -21 143.339 
42475 2 -20 143.339 
42476 2 -19 143.339 
42477 2 -18 143.339 
ITEM: TIMESTEP
20000
ITEM: NUMBER OF ATOMS
15
ITEM: BOX BOUNDS ff fm pp
-4.1000000000000000e+01 4.1000000000000000e+01
0.0000000000000000e+00 2.0000000000000000e+02
-2.5000000000000000e-01 2.5000000000000000e-01
ITEM: ATOMS id type x y 
42463 2 -20 139.5 
42464 2 -20.5 140.366 
42465 2 -19.5 140.366 
42466 2 -21 141.232 
42467 2 -20 141.232 
42468 2 -19 141.232 
42469 2 -21.5 142.098 
42470 2 -20.5 142.098 
42471 2 -19.5 142.098 
42472 2 -18.5 142.098 
42473 2 -22 142.964 
42474 2 -21 142.964 
42475 2 -20 142.964 
42476 2 -19 142.964 
42477 2 -18 142.964 
ITEM: TIMESTEP
30000
ITEM: NUMBER OF ATOMS
15
ITEM: BOX BOUNDS ff fm pp
-4.1000000000000000e+01 4.1000000000000000e+01
0.0000000000000000e+00 2.0000000000000000e+02
-2.5000000000000000e-01 2.5000000000000000e-01
ITEM: ATOMS id type x y 
42463 2 -20 138.875 
42464 2 -20.5 139.741 
42465 2 -19.5 139.741 
42466 2 -21 140.607 
42467 2 -20 140.607 
42468 2 -19 140.607 
42469 2 -21.5 141.473 
42470 2 -20.5 141.473 
42471 2 -19.5 141.473 
42472 2 -18.5 141.473 
42473 2 -22 142.339 
42474 2 -21 142.339 
42475 2 -20 142.339 
42476 2 -19 142.339 
42477 2 -18 142.339 
ITEM: TIMESTEP
40000
ITEM: NUMBER OF ATOMS
15
ITEM: BOX BOUNDS ff fm pp
-4.1000000000000000e+01 4.1000000000000000e+01
0.0000000000000000e+00 2.0000000000000000e+02
-2.5000000000000000e-01 2.5000000000000000e-01
ITEM: ATOMS id type x y 
42463 2 -20 138 
42464 2 -20.5 138.866 
42465 2 -19.5 138.866 
42466 2 -21 139.732 
42467 2 -20 139.732 
42468 2 -19 139.732 
42469 2 -21.5 140.598 
42470 2 -20.5 140.598 
42471 2 -19.5 140.598 
42472 2 -18.5 140.598 
42473 2 -22 141.464 
42474 2 -21 141.464 
42475 2 -20 141.464 
42476 2 -19 141.464 
42477 2 -18 141.464 
ITEM: TIMESTEP
50000
ITEM: NUMBER OF ATOMS
15
ITEM: BOX BOUNDS ff fm pp
-4.1000000000000000e+01 4.1000000000000000e+01
0.0000000000000000e+00 2.0000000000000000e+02
-2.5000000000000000e-01 2.5000000000000000e-01
ITEM: ATOMS id type x y 
42463 2 -20 136.875 
42464 2 -20.5 137.741 
42465 2 -19.5 137.741 
42466 2 -21 138.607 
42467 2 -20 138.607 
42468 2 -19 138.607 
42469 2 -21.5 139.473 
42470 2 -20.5 139.473 
42471 2 -19.5 139.473 
42472 2 -18.5 139.473 
42473 2 -22 140.339 
42474 2 -21 140.339 
42475 2 -20 140.339 
42476 2 -19 140.339 
42477 2 -18 140.339 
ITEM: TIMESTEP
60000
ITEM: NUMBER OF ATOMS
15
ITEM: BOX BOUNDS ff fm pp
-4.1000000000000000e+01 4.1000000000000000e+01
0.0000000000000000e+00 2.0000000000000000e+02
-2.5000000000000000e-01 2.5000000000000000e-01
ITEM: ATOMS id type x y 
42463 2 -20 135.5 
42464 2 -20.5 136.366 
42465 2 -19.5 136.366 
42466 2 -21 137.232 
42467 2 -20 137.232 
42468 2 -19 137.232 
42469 2 -21.5 138.098 
42470 2 -20.5 138.098 
42471 2 -19.5 138.098 
42472 2 -18.5 138.098 
42473 2 -22 138.964 
42474 2 -21 138.964 
42475 2 -20 138.964 
42476 2 -19 138.964 
42477 2 -18 138.964 
ITEM: TIMESTEP
70000
ITEM: NUMBER OF ATOMS
15
ITEM: BOX BOUNDS ff fm pp
-4.1000000000000000e+01 4.1000000000000000e+01
0.0000000000000000e+00 2.0000000000000000e+02
-2.5000000000000000e-01 2.5000000000000000e-01
ITEM: ATOMS id type x y 
42463 2 -20 133.875 
42464 2 -20.5 134.741 
42465 2 -19.5 134.741 
42466 2 -21 135.607 
42467 2 -20 135.607 
42468 2 -19 135.607 
42469 2 -21.5 136.473 
42470 2 -20.5 136.473 
42471 2 -19.5 136.473 
42472 2 -18.5 136.473 
42473 2 -22 137.339 
42474 2 -21 137.339 
42475 2 -20 137.339 
42476 2 -19 137.339 
42477 2 -18 137.339 
ITEM: TIMESTEP
80000
ITEM: NUMBER OF ATOMS
15
ITEM: BOX BOUNDS ff fm pp
-4.1000000000000000e+01 4.1000000000000000e+01
0.0000000000000000e+00 2.0000000000000000e+02
-2.5000000000000000e-01 2.5000000000000000e-01
ITEM: ATOMS id type x y 
42463 2 -20 132 
42464 2 -20.5 132.866 
42465 2 -19.5 132.866 
42466 2 -21 133.732 
42467 2 -20 133.732 
42468 2 -19 133.732 
42469 2 -21.5 134.598 
42470 2 -20.5 134.598 
42471 2 -19.5 134.598 
42472 2 -18.5 134.598 
42473 2 -22 135.464 
42474 2 -21 135.464 
42475 2 -20 135.464 
42476 2 -19 135.464 
42477 2 -18 135.464 
ITEM: TIMESTEP
90000
ITEM: NUMBER OF ATOMS
15
ITEM: BOX BOUNDS ff fm pp
-4.1000000000000000e+01 4.1000000000000000e+01
0.0000000000000000e+00 2.0000000000000000e+02
-2.5000000000000000e-01 2.5000000000000000e-01
ITEM: ATOMS id type x y 
42463 2 -20 129.875 
42464 2 -20.5 130.741 
42465 2 -19.5 130.741 
42466 2 -21 131.607 
42467 2 -20 131.607 
42468 2 -19 131.607 
42469 2 -21.5 132.473 
42470 2 -20.5 132.473 
42471 2 -19.5 132.473 
42472 2 -18.5 132.473 
42473 2 -22 133.339 
42474 2 -21 133.339 
42475 2 -20 133.339 
42476 2 -19 133.339 
42477 2 -18 133.339 
ITEM: TIMESTEP
100000
ITEM: NUMBER OF ATOMS
15
ITEM: BOX BOUNDS ff fm pp
-4.1000000000000000e+01 4.1000000000000000e+01
0.0000000000000000e+00 2.0000000000000000e+02
-2.5000000000000000e-01 2.5000000000000000e-01
ITEM: ATOMS id type x y 
42463 2 -20 127.5 
42464 2 -20.5 128.366 
42465 2 -19.5 128.366 
42466 2 -21 129.232 
42467 2 -20 129.232 
42468 2 -19 129.232 
42469 2 -21.5 130.098 
42470 2 -20.5 130.098 
42471 2 -19.5 130.098 
42472 2 -18.5 130.098 
42473 2 -22 130.964 
42474 2 -21 130.964 
42475 2 -20 130.964 
42476 2 -19 130.964 
42477 2 -18 130.964 
ITEM: TIMESTEP
110000
ITEM: NUMBER OF ATOMS
15
ITEM: BOX BOUNDS ff fm pp
-4.1000000000000000e+01 4.1000000000000000e+01
0.0000000000000000e+00 2.0000000000000000e+02
-2.5000000000000000e-01 2.5000000000000000e-01
ITEM: ATOMS id type x y 
42463 2 -20 124.875 
42464 2 -20.5 125.741 
42465 2 -19.5 125.741 
42466 2 -21 126.607 
42467 2 -20 126.607 
42468 2 -19 126.607 
42469 2 -21.5 127.473 
42470 2 -20.5 127.473 
42471 2 -19.5 127.473 
42472 2 -18.5 127.473 
42473 2 -22 128.339 
42474 2 -21 128.339 
42475 2 -20 128.339 
42476 2 -19 128.339 
42477 2 -18 128.339 
ITEM: TIMESTEP
120000
ITEM: NUMBER OF ATOMS
15
ITEM: BOX BOUNDS ff fm pp
-4.1000000000000000e+01 4.1000000000000000e+01
0.0000000000000000e+00 2.0000000000000000e+02
-2.5000000000000000e-01 2.5000000000000000e-01
ITEM: ATOMS id type x y 
42463 2 -20 122 
42464 2 -20.5 122.866 
42465 2 -19.5 122.866 
42466 2 -21 123.732 
42467 2 -20 123.732 
42468 2 -19 123.732 
42469 2 -21.5 124.598 
42470 2 -20.5 124.598 
42471 2 -19.5 124.598 
42472 2 -18.5 124.598 
42473 2 -22 125.464 
42474 2 -21 125.464 
42475 2 -20 125.464 
42476 2 -19 125.464 
42477 2 -18 125.464 
ITEM: TIMESTEP
130000
ITEM: NUMBER OF ATOMS
15
ITEM: BOX BOUNDS ff fm pp
-4.1000000000000000e+01 4.1000000000000000e+01
0.0000000000000000e+00 2.0000000000000000e+02
-2.5000000000000000e-01 2.5000000000000000e-01
ITEM: ATOMS id type x y 
42463 2 -19.9976 118.884 
42464 2 -20.4983 119.749 
42465 2 -19.4983 119.75 
42466 2 -20.9989 120.615 
42467 2 -19.9989 120.616 
42468 2 -18.9989 120.616 
42469 2 -21.4996 121.48 
42470 2 -20.4996 121.481 
42471 2 -19.4996 121.482 
42472 2 -18.4996 121.483 
42473 2 -22.0003 122.346 
42474 2 -21.0003 122.347 
42475 2 -20.0003 122.348 
42476 2 -19.0003 122.348 
42477 2 -18.0003 122.349 
ITEM: TIMESTEP
140000
ITEM: NUMBER OF ATOMS
15
ITEM: BOX BOUNDS ff fm pp
-4.1000000000000000e+01 4.1000000000000000e+01
0.0000000000000000e+00 2.0000000000000000e+02
-2.5000000000000000e-01 2.5000000000000000e-01
ITEM: ATOMS id type x y 
42463 2 -20.0338 115.596 
42464 2 -20.5284 116.465 
42465 2 -19.5284 116.459 
42466 2 -21.023 117.334 
42467 2 -20.023 117.328 
42468 2 -19.023 117.322 
42469 2 -21.5176 118.204 
42470 2 -20.5176 118.197 
42471 2 -19.5176 118.191 
42472 2 -18.5177 118.185 
42473 2 -22.0122 119.073 
42474 2 -21.0122 119.066 
42475 2 -20.0122 119.06 
42476 2 -19.0123 119.054 
42477 2 -18.0123 119.048 
ITEM: TIMESTEP
150000
ITEM: NUMBER OF ATOMS
15
ITEM: BOX BOUNDS ff fm pp
-4.1000000000000000e+01 4.1000000000000000e+01
0.0000000000000000e+00 2.0000000000000000e+02
-2.5000000000000000e-01 2.5000000000000000e-01
ITEM: ATOMS id type x y 
42463 2 -20.2175 112.285 
42464 2 -20.6845 113.169 
42465 2 -19.6852 113.132 
42466 2 -21.1514 114.054 
42467 2 -20.1521 114.016 
42468 2 -19.1528 113.978 
42469 2 -21.6184 114.938 
42470 2 -20.6191 114.9 
42471 2 -19.6198 114.863 
42472 2 -18.6205 114.825 
42473 2 -22.0853 115.822 
42474 2 -21.086 115.785 
42475 2 -20.0868 115.747 
42476 2 -19.0875 115.709 
42477 2 -18.0882 115.671 
ITEM: TIMESTEP
160000
ITEM: NUMBER OF ATOMS
15
ITEM: BOX BOUNDS ff fm pp
-4.1000000000000000e+01 4.1000000000000000e+01
0.0000000000000000e+00 2.0000000000000000e+02
-2.5000000000000000e-01 2.5000000000000000e-01
ITEM: ATOMS id type x y 
42463 2 -20.5508 108.983 
42464 2 -20.9781 109.887 
42465 2 -19.9814 109.805 
42466 2 -21.4053 110.791 
42467 2 -20.4087 110.709 
42468 2 -19.4121 110.627 
42469 2 -21.8326 111.696 
42470 2 -20.836 111.614 
42471 2 -19.8394 111.531 
42472 2 -18.8427 111.449 
42473 2 -22.2599 112.6 
42474 2 -21.2633 112.518 
42475 2 -20.2667 112.436 
42476 2 -19.27 112.354 
42477 2 -18.2734 112.272 
ITEM: TIMESTEP
170000
ITEM: NUMBER OF ATOMS
15
ITEM: BOX BOUNDS ff fm pp
-4.1000000000000000e+01 4.1000000000000000e+01
0.0000000000000000e+00 2.0000000000000000e+02
-2.5000000000000000e-01 2.5000000000000000e-01
ITEM: ATOMS id type x y 
42463 2 -21.0429 105.792 
42465 2 -20.4278 106.581 
42464 2 -21.4182 106.719 
42466 2 -21.7935 107.646 
42467 2 -20.8032 107.507 
42468 2 -19.8128 107.369 
42471 2 -20.1881 108.296 
42472 2 -19.1977 108.157 
42469 2 -22.1689 108.573 
42470 2 -21.1785 108.434 
42477 2 -18.5827 108.946 
42473 2 -22.5442 109.5 
42474 2 -21.5538 109.361 
42475 2 -20.5634 109.223 
42476 2 -19.5731 109.084 
ITEM: TIMESTEP
180000
ITEM: NUMBER OF ATOMS
15
ITEM: BOX BOUNDS ff fm pp
-4.1000000000000000e+01 4.1000000000000000e+01
0.0000000000000000e+00 2.0000000000000000e+02
-2.5000000000000000e-01 2.5000000000000000e-01
ITEM: ATOMS id type x y 
42463 2 -21.6492 102.624 
42464 2 -21.9658 103.573 
42465 2 -20.9861 103.373 
42468 2 -20.3229 104.121 
42466 2 -22.2824 104.521 
42467 2 -21.3026 104.321 
42470 2 -21.6192 105.27 
42471 2 -20.6395 105.07 
42472 2 -19.6597 104.869 
42469 2 -22.599 105.47 
42476 2 -19.9763 105.818 
42477 2 -18.9965 105.618 
42473 2 -22.9156 106.418 
42474 2 -21.9358 106.218 
42475 2 -20.9561 106.018 
ITEM: TIMESTEP
190000
ITEM: NUMBER OF ATOMS
15
ITEM: BOX BOUNDS ff fm pp
-4.1000000000000000e+01 4.1000000000000000e+01
0.0000000000000000e+00 2.0000000000000000e+02
-2.5000000000000000e-01 2.5000000000000000e-01
ITEM: ATOMS id type x y 
42463 2 -22.3167 99.4387 
42464 2 -22.5806 100.403 
42465 2 -21.6133 100.149 
42467 2 -21.8771 101.114 
42468 2 -20.9099 100.86 
42466 2 -22.8444 101.368 
42472 2 -20.2064 101.571 
42469 2 -23.1082 102.332 
42470 2 -22.1409 102.079 
42471 2 -21.1737 101.825 
42477 2 -19.503 102.282 
42475 2 -21.4375 102.789 
42476 2 -20.4702 102.535 
42473 2 -23.372 103.297 
42474 2 -22.4047 103.043 
ITEM: TIMESTEP
200000
ITEM: NUMBER OF ATOMS
15
ITEM: BOX BOUNDS ff fm pp
-4.1000000000000000e+01 4.1000000000000000e+01
0.0000000000000000e+00 2.0000000000000000e+02
-2.5000000000000000e-01 2.5000000000000000e-01
ITEM: ATOMS id type x y 
42463 2 -23.014 96.2016 
42465 2 -22.2789 96.8795 
42464 2 -23.2336 97.1772 
42468 2 -21.5438 97.5574 
42466 2 -23.4531 98.1528 
42467 2 -22.4984 97.8551 
42471 2 -21.7633 98.533 
42472 2 -20.8086 98.2353 
42469 2 -23.6726 99.1283 
42470 2 -22.718 98.8307 
42476 2 -21.0282 99.2109 
42477 2 -20.0735 98.9132 
42474 2 -22.9375 99.8062 
42475 2 -21.9828 99.5086 
42473 2 -23.8922 100.104 
ITEM: TIMESTEP
210000
ITEM: NUMBER OF ATOMS
15
ITEM: BOX BOUNDS ff fm pp
-4.1000000000000000e+01 4.1000000000000000e+01
0.0000000000000000e+00 2.0000000000000000e+02
-2.5000000000000000e-01 2.5000000000000000e-01
ITEM: ATOMS id type x y 
42463 2 -23.7254 92.925 
42464 2 -23.9164 93.9066 
42465 2 -22.9708 93.5812 
42467 2 -23.1618 94.5627 
42468 2 -22.2162 94.2373 
42466 2 -24.1073 94.8881 
42472 2 -21.4616 94.8935 
42470 2 -23.3527 95.5443 
42471 2 -22.4072 95.2189 
42477 2 -20.707 95.5496 
42469 2 -24.2983 95.8697 
42475 2 -22.5981 96.2005 
42476 2 -21.6526 95.875 
42473 2 -24.4893 96.8513 
42474 2 -23.5437 96.5259 
ITEM: TIMESTEP
220000
ITEM: NUMBER OF ATOMS
15
ITEM: BOX BOUNDS ff fm pp
-4.1000000000000000e+01 4.1000000000000000e+01
0.0000000000000000e+00 2.0000000000000000e+02
-2.5000000000000000e-01 2.5000000000000000e-01
ITEM: ATOMS id type x y 
42463 2 -24.4693 89.6006 
42465 2 -23.7025 90.2424 
42464 2 -24.6417 90.5856 
42468 2 -22.9356 90.8842 
42466 2 -24.8142 91.5706 
42467 2 -23.8749 91.2274 
42472 2 -22.1688 91.5261 
42471 2 -23.1081 91.8692 
42477 2 -21.402 92.1679 
42469 2 -24.9866 92.5556 
42470 2 -24.0474 92.2124 
42476 2 -22.3413 92.5111 
42474 2 -24.2198 93.1974 
42475 2 -23.2805 92.8542 
42473 2 -25.1591 93.5406 
ITEM: TIMESTEP
230000
ITEM: NUMBER OF ATOMS
15
ITEM: BOX BOUNDS ff fm pp
-4.1000000000000000e+01 4.1000000000000000e+01
0.0000000000000000e+00 2.0000000000000000e+02
-2.5000000000000000e-01 2.5000000000000000e-01
ITEM: ATOMS id type x y 
42463 2 -25.2924 86.2671 
42464 2 -25.4395 87.2562 
42465 2 -24.5094 86.8891 
42467 2 -24.6565 87.8782 
42468 2 -23.7264 87.5111 
42466 2 -25.5867 88.2453 
42471 2 -23.8735 88.5002 
42472 2 -22.9434 88.1331 
42470 2 -24.8037 88.8673 
42476 2 -23.0905 89.1222 
42477 2 -22.1603 88.755 
42469 2 -25.7339 89.2344 
42475 2 -24.0207 89.4893 
42473 2 -25.881 90.2235 
42474 2 -24.9509 89.8564 
ITEM: TIMESTEP
240000
ITEM: NUMBER OF ATOMS
15
ITEM: BOX BOUNDS ff fm pp
-4.1000000000000000e+01 4.1000000000000000e+01
0.0000000000000000e+00 2.0000000000000000e+02
-2.5000000000000000e-01 2.5000000000000000e-01
ITEM: ATOMS id type x y 
42463 2 -26.1611 82.9278 
42465 2 -25.364 83.5316 
42464 2 -26.2854 83.92 
42468 2 -24.5668 84.1354 
42466 2 -26.4098 84.9123 
42467 2 -25.4883 84.5238 
42472 2 -23.7697 84.7392 
42470 2 -25.6127 85.516 
42471 2 -24.6912 85.1276 
42477 2 -22.9726 85.343 
42469 2 -26.5342 85.9045 
42475 2 -24.8156 86.1198 
42476 2 -23.8941 85.7314 
42474 2 -25.737 86.5083 
42473 2 -26.6585 86.8967 
ITEM: TIMESTEP
250000
ITEM: NUMBER OF ATOMS
15
ITEM: BOX BOUNDS ff fm pp
-4.1000000000000000e+01 4.1000000000000000e+01
0.0000000000000000e+00 2.0000000000000000e+02
-2.5000000000000000e-01 2.5000000000000000e-01
ITEM: ATOMS id type x y 
42463 2 -27.0215 79.5816 
42465 2 -26.2197 80.1791 
42464 2 -27.138 80.5748 
42468 2 -25.4178 80.7765 
42467 2 -26.3362 81.1722 
42472 2 -24.6159 81.374 
42466 2 -27.2545 81.568 
42471 2 -25.5343 81.7697 
42477 2 -23.814 81.9714 
42469 2 -27.371 82.5611 
42470 2 -26.4526 82.1654 
42476 2 -24.7324 82.3671 
42474 2 -26.5691 83.1586 
42475 2 -25.6508 82.7629 
42473 2 -27.4875 83.5543 
ITEM: TIMESTEP
260000
ITEM: NUMBER OF ATOMS
15
ITEM: BOX BOUNDS ff fm pp
-4.1000000000000000e+01 4.1000000000000000e+01
0.0000000000000000e+00 2.0000000000000000e+02
-2.5000000000000000e-01 2.5000000000000000e-01
ITEM: ATOMS id type x y 
42463 2 -27.8977 76.2322 
42465 2 -27.0933 76.8262 
42464 2 -28.01 77.2259 
42468 2 -26.2889 77.4202 
42466 2 -28.1222 78.2195 
42467 2 -27.2055 77.8199 
42472 2 -25.4844 78.0142 
42470 2 -27.3177 78.8135 
42471 2 -26.4011 78.4138 
42477 2 -24.68 78.6082 
42469 2 -28.2344 79.2132 
42475 2 -26.5133 79.4075 
42476 2 -25.5966 79.0078 
42474 2 -27.43 79.8072 
42473 2 -28.3466 80.2068 
ITEM: TIMESTEP
270000
ITEM: NUMBER OF ATOMS
15
ITEM: BOX BOUNDS ff fm pp
-4.1000000000000000e+01 4.1000000000000000e+01
0.0000000000000000e+00 2.0000000000000000e+02
-2.5000000000000000e-01 2.5000000000000000e-01
ITEM: ATOMS id type x y 
42463 2 -28.7512 72.9645 
42465 2 -27.9537 73.5678 
42464 2 -28.875 73.9567 
42468 2 -27.1563 74.1711 
42467 2 -28.0775 74.5601 
42472 2 -26.3588 74.7745 
42466 2 -28.9988 74.949 
42471 2 -27.2801 75.1634 
42477 2 -25.5613 75.3778 
42469 2 -29.1226 75.9413 
42470 2 -28.2013 75.5524 
42476 2 -26.4826 75.7668 
42474 2 -28.3251 76.5447 
42475 2 -27.4039 76.1557 
42473 2 -29.2464 76.9336 
ITEM: TIMESTEP
280000
ITEM: NUMBER OF ATOMS
15
ITEM: BOX BOUNDS ff fm pp
-4.1000000000000000e+01 4.1000000000000000e+01
0.0000000000000000e+00 2.0000000000000000e+02
-2.5000000000000000e-01 2.5000000000000000e-01
ITEM: ATOMS id type x y 
42463 2 -29.5826 69.7539 
42465 2 -28.7964 70.3717 
42464 2 -29.7246 70.7437 
42468 2 -28.0102 70.9896 
42466 2 -29.8667 71.7335 
42467 2 -28.9384 71.3616 
42472 2 -27.2239 71.6075 
42470 2 -29.0804 72.3514 
42471 2 -28.1522 71.9795 
42477 2 -26.4377 72.2254 
42469 2 -30.0087 72.7234 
42475 2 -28.2942 72.9693 
42476 2 -27.3659 72.5974 
42474 2 -29.2224 73.3413 
42473 2 -30.1507 73.7132 
ITEM: TIMESTEP
290000
ITEM: NUMBER OF ATOMS
15
ITEM: BOX BOUNDS ff fm pp
-4.1000000000000000e+01 4.1000000000000000e+01
0.0000000000000000e+00 2.0000000000000000e+02
-2.5000000000000000e-01 2.5000000000000000e-01
ITEM: ATOMS id type x y 
42463 2 -30.4566 66.617 
42465 2 -29.6739 67.2394 
42464 2 -30.6043 67.6061 
42468 2 -28.8912 67.8617 
42466 2 -30.7519 68.5951 
42467 2 -29.8215 68.2284 
42472 2 -28.1085 68.484 
42470 2 -29.9691 69.2174 
42471 2 -29.0388 68.8507 
42477 2 -27.3257 69.1063 
42469 2 -30.8995 69.5841 
42475 2 -29.1864 69.8397 
42476 2 -28.2561 69.473 
42473 2 -31.0471 70.5731 
42474 2 -30.1168 70.2064 
ITEM: TIMESTEP
300000
ITEM: NUMBER OF ATOMS
15
ITEM: BOX BOUNDS ff fm pp
-4.1000000000000000e+01 4.1000000000000000e+01
0.0000000000000000e+00 2.0000000000000000e+02
-2.5000000000000000e-01 2.5000000000000000e-01
ITEM: ATOMS id type x y 
42463 2 -31.3321 63.5215 
42464 2 -31.481 64.5103 
42465 2 -30.5502 64.1448 
42467 2 -30.6991 65.1337 
42468 2 -29.7683 64.7682 
42466 2 -31.6299 65.4992 
42471 2 -29.9172 65.757 
42472 2 -28.9863 65.3915 
42470 2 -30.848 66.1225 
42476 2 -29.1352 66.3804 
42477 2 -28.2044 66.0149 
42469 2 -31.7788 66.488 
42475 2 -30.0661 66.7459 
42473 2 -31.9277 67.4768 
42474 2 -30.9969 67.1113 
ITEM: TIMESTEP
310000
ITEM: NUMBER OF ATOMS
15
ITEM: BOX BOUNDS ff fm pp
-4.1000000000000000e+01 4.1000000000000000e+01
0.0000000000000000e+00 2.0000000000000000e+02
-2.5000000000000000e-01 2.5000000000000000e-01
ITEM: ATOMS id type x y 
42463 2 -32.1786 60.5369 
42464 2 -32.3424 61.5234 
42465 2 -31.4061 61.172 
42467 2 -31.5699 62.1585 
42468 2 -30.6337 61.807 
42466 2 -32.5062 62.5099 
42472 2 -29.8613 62.4421 
42470 2 -31.7337 63.1449 
42471 2 -30.7975 62.7935 
42477 2 -29.0888 63.0772 
42469 2 -32.6699 63.4963 
42475 2 -30.9613 63.78 
42476 2 -30.0251 63.4286 
42473 2 -32.8337 64.4828 
42474 2 -31.8975 64.1314 
ITEM: TIMESTEP
320000
ITEM: NUMBER OF ATOMS
15
ITEM: BOX BOUNDS ff fm pp
-4.1000000000000000e+01 4.1000000000000000e+01
0.0000000000000000e+00 2.0000000000000000e+02
-2.5000000000000000e-01 2.5000000000000000e-01
ITEM: ATOMS id type x y 
42463 2 -32.9928 57.6775 
42465 2 -32.2375 58.3328 
42464 2 -33.1827 58.6593 
42468 2 -31.4821 58.988 
42466 2 -33.3725 59.6411 
42467 2 -32.4273 59.3145 
42472 2 -30.7267 59.6433 
42470 2 -32.6171 60.2963 
42471 2 -31.6719 59.9698 
42477 2 -29.9714 60.2986 
42469 2 -33.5623 60.6229 
42475 2 -31.8617 60.9516 
42476 2 -30.9166 60.6251 
42474 2 -32.8069 61.2781 
42473 2 -33.7521 61.6047 
ITEM: TIMESTEP
330000
ITEM: NUMBER OF ATOMS
15
ITEM: BOX BOUNDS ff fm pp
-4.1000000000000000e+01 4.1000000000000000e+01
0.0000000000000000e+00 2.0000000000000000e+02
-2.5000000000000000e-01 2.5000000000000000e-01
ITEM: ATOMS id type x y 
42463 2 -33.6931 54.9861 
42464 2 -33.9313 55.9573 
42465 2 -32.9711 55.6779 
42467 2 -33.2093 56.6491 
42468 2 -32.2491 56.3698 
42466 2 -34.1694 56.9285 
42471 2 -32.4872 57.341 
42472 2 -31.527 57.0616 
42469 2 -34.4076 57.8997 
42470 2 -33.4474 57.6203 
42477 2 -30.805 57.7534 
42474 2 -33.6856 58.5915 
42475 2 -32.7254 58.3122 
42476 2 -31.7652 58.0328 
42473 2 -34.6458 58.8709 
ITEM: TIMESTEP
340000
ITEM: NUMBER OF ATOMS
15
ITEM: BOX BOUNDS ff fm pp
-4.1000000000000000e+01 4.1000000000000000e+01
0.0000000000000000e+00 2.0000000000000000e+02
-2.5000000000000000e-01 2.5000000000000000e-01
ITEM: ATOMS id type x y 
42463 2 -34.325 52.3934 
42465 2 -33.6412 53.123 
42464 2 -34.6151 53.3504 
42466 2 -34.9051 54.3074 
42467 2 -33.9313 54.08 
42468 2 -32.9575 53.8527 
42470 2 -34.2213 55.037 
42471 2 -33.2475 54.8097 
42472 2 -32.2737 54.5823 
42469 2 -35.1951 55.2644 
42476 2 -32.5637 55.5393 
42477 2 -31.5899 55.312 
42473 2 -35.4851 56.2214 
42474 2 -34.5113 55.994 
42475 2 -33.5375 55.7667 
ITEM: TIMESTEP
350000
ITEM: NUMBER OF ATOMS
15
ITEM: BOX BOUNDS ff fm pp
-4.1000000000000000e+01 4.1000000000000000e+01
0.0000000000000000e+00 2.0000000000000000e+02
-2.5000000000000000e-01 2.5000000000000000e-01
ITEM: ATOMS id type x y 
42463 2 -34.8928 49.9017 
42465 2 -34.2483 50.6663 
42464 2 -35.2327 50.8421 
42468 2 -33.6038 51.4309 
42466 2 -35.5727 51.7825 
42467 2 -34.5883 51.6067 
42470 2 -34.9282 52.5471 
42471 2 -33.9438 52.3713 
42472 2 -32.9594 52.1954 
42469 2 -35.9126 52.7229 
42476 2 -33.2993 53.1359 
42477 2 -32.3149 52.96 
42473 2 -36.2526 53.6633 
42474 2 -35.2681 53.4875 
42475 2 -34.2837 53.3117 
ITEM: TIMESTEP
360000
ITEM: NUMBER OF ATOMS
15
ITEM: BOX BOUNDS ff fm pp
-4.1000000000000000e+01 4.1000000000000000e+01
0.0000000000000000e+00 2.0051200744064562e+02
-2.5000000000000000e-01 2.5000000000000000e-01
ITEM: ATOMS id type x y 
42463 2 -35.3522 47.5264 
42464 2 -35.7407 48.4478 
42465 2 -34.7485 48.3236 
42468 2 -34.1448 49.1208 
42466 2 -36.1293 49.3692 
42467 2 -35.1371 49.245 
42469 2 -36.5179 50.2906 
42470 2 -35.5256 50.1664 
42471 2 -34.5334 50.0422 
42472 2 -33.5411 49.918 
42475 2 -34.922 50.9636 
42476 2 -33.9297 50.8394 
42477 2 -32.9374 50.7152 
42473 2 -36.9065 51.212 
42474 2 -35.9142 51.0878 
ITEM: TIMESTEP
370000
ITEM: NUMBER OF ATOMS
15
ITEM: BOX BOUNDS ff fm pp
-4.1000000000000000e+01 4.1000000000000000e+01
0.0000000000000000e+00 2.0101914256289209e+02
-2.5000000000000000e-01 2.5000000000000000e-01
ITEM: ATOMS id type x y 
42463 2 -35.6239 45.2775 
42464 2 -36.069 46.173 
42465 2 -35.0709 46.1107 
42466 2 -36.514 47.0684 
42467 2 -35.516 47.0061 
42468 2 -34.5179 46.9438 
42469 2 -36.9591 47.9639 
42470 2 -35.9611 47.9016 
42471 2 -34.963 47.8393 
42472 2 -33.9649 47.777 
42476 2 -34.41 48.6725 
42477 2 -33.412 48.6102 
42473 2 -37.4042 48.8594 
42474 2 -36.4061 48.7971 
42475 2 -35.4081 48.7348 
ITEM: TIMESTEP
380000
ITEM: NUMBER OF ATOMS
15
ITEM: BOX BOUNDS ff fm pp
-4.1000000000000000e+01 4.1000000000000000e+01
0.0000000000000000e+00 2.0128162966956086e+02
-2.5000000000000000e-01 2.5000000000000000e-01
ITEM: ATOMS id type x y 
42463 2 -35.6926 43.1093 
42464 2 -36.2142 43.9625 
42465 2 -35.2146 43.9876 
42466 2 -36.7359 44.8156 
42467 2 -35.7362 44.8408 
42468 2 -34.7365 44.8659 
42469 2 -37.2575 45.6688 
42470 2 -36.2578 45.6939 
42471 2 -35.2581 45.7191 
42472 2 -34.2584 45.7442 
42473 2 -37.7791 46.5219 
42474 2 -36.7794 46.5471 
42475 2 -35.7797 46.5722 
42476 2 -34.7801 46.5974 
42477 2 -33.7804 46.6225 
ITEM: TIMESTEP
390000
ITEM: NUMBER OF ATOMS
15
ITEM: BOX BOUNDS ff fm pp
-4.1000000000000000e+01 4.1000000000000000e+01
0.0000000000000000e+00 2.0129083946787219e+02
-2.5000000000000000e-01 2.5000000000000000e-01
ITEM: ATOMS id type x y 
42463 2 -35.6271 41.0123 
42464 2 -36.2242 41.8144 
42465 2 -35.231 41.9304 
42466 2 -36.8213 42.6165 
42467 2 -35.8281 42.7326 
42468 2 -34.8349 42.8486 
42469 2 -37.4185 43.4187 
42470 2 -36.4252 43.5347 
42471 2 -35.432 43.6507 
42472 2 -34.4387 43.7668 
42473 2 -38.0156 44.2208 
42474 2 -37.0223 44.3368 
42475 2 -36.0291 44.4529 
42476 2 -35.0358 44.5689 
42477 2 -34.0426 44.685 
ITEM: TIMESTEP
400000
ITEM: NUMBER OF ATOMS
15
ITEM: BOX BOUNDS ff fm pp
-4.1000000000000000e+01 4.1000000000000000e+01
0.0000000000000000e+00 2.0104982978455325e+02
-2.5000000000000000e-01 2.5000000000000000e-01
ITEM: ATOMS id type x y 
42463 2 -35.4697 38.915 
42464 2 -36.1302 39.6658 
42465 2 -35.1497 39.8625 
42466 2 -36.7908 40.4165 
42467 2 -35.8103 40.6132 
42468 2 -34.8298 40.8099 
42469 2 -37.4513 41.1673 
42470 2 -36.4708 41.364 
42473 2 -38.1119 41.918 
42471 2 -35.4904 41.5606 
42472 2 -34.5099 41.7573 
42474 2 -37.1314 42.1147 
42475 2 -36.1509 42.3114 
42476 2 -35.1705 42.5081 
42477 2 -34.19 42.7047 
ITEM: TIMESTEP
410000
ITEM: NUMBER OF ATOMS
15
ITEM: BOX BOUNDS ff fm pp
-4.1000000000000000e+01 4.1000000000000000e+01
0.0000000000000000e+00 2.0055691270786426e+02
-2.5000000000000000e-01 2.5000000000000000e-01
ITEM: ATOMS id type x y 
42463 2 -35.2392 36.815 
42464 2 -35.9474 37.5209 
42466 2 -36.6557 38.2268 
42465 2 -34.982 37.7813 
42469 2 -37.364 38.9327 
42467 2 -35.6902 38.4872 
42468 2 -34.7247 38.7476 
42470 2 -36.3985 39.1931 
42471 2 -35.433 39.4535 
42473 2 -38.0723 39.6386 
42474 2 -37.1068 39.899 
42475 2 -36.1413 40.1594 
42472 2 -34.4675 39.714 
42476 2 -35.1758 40.4199 
42477 2 -34.2103 40.6803 
ITEM: TIMESTEP
420000
ITEM: NUMBER OF ATOMS
15
ITEM: BOX BOUNDS ff fm pp
-4.1000000000000000e+01 4.1000000000000000e+01
0.0000000000000000e+00 2.0000000000000000e+02
-2.5000000000000000e-01 2.5000000000000000e-01
ITEM: ATOMS id type x y 
42463 2 -34.854 34.7141 
42464 2 -35.619 35.358 
42465 2 -34.6788 35.6986 
42466 2 -36.3841 36.002 
42467 2 -35.4438 36.3426 
42469 2 -37.1491 36.646 
42470 2 -36.2089 36.9865 
42468 2 -34.5036 36.6831 
42473 2 -37.9141 37.2899 
42471 2 -35.2686 37.3271 
42474 2 -36.9739 37.6305 
42475 2 -36.0337 37.971 
42472 2 -34.3284 37.6676 
42476 2 -35.0934 38.3116 
42477 2 -34.1532 38.6521 
ITEM: TIMESTEP
430000
ITEM: NUMBER OF ATOMS
15
ITEM: BOX BOUNDS ff fm pp
-4.1000000000000000e+01 4.1000000000000000e+01
0.0000000000000000e+00 2.0000000000000000e+02
-2.5000000000000000e-01 2.5000000000000000e-01
ITEM: ATOMS id type x y 
42463 2 -34.3967 32.5609 
42464 2 -35.2142 33.1369 
42466 2 -36.0316 33.7128 
42465 2 -34.3066 33.5568 
42469 2 -36.849 34.2888 
42467 2 -35.124 34.1328 
42468 2 -34.2165 34.5527 
42473 2 -37.6665 34.8648 
42470 2 -35.9415 34.7087 
42471 2 -35.0339 35.1287 
42474 2 -36.7589 35.2847 
42475 2 -35.8514 35.7047 
42472 2 -34.1264 35.5486 
42476 2 -34.9438 36.1246 
42477 2 -34.0363 36.5445 
ITEM: TIMESTEP
440000
ITEM: NUMBER OF ATOMS
15
ITEM: BOX BOUNDS ff fm pp
-4.1000000000000000e+01 4.1000000000000000e+01
0.0000000000000000e+00 2.0000000000000000e+02
-2.5000000000000000e-01 2.5000000000000000e-01
ITEM: ATOMS id type x y 
42463 2 -33.8625 30.4104 
42464 2 -34.7274 30.9123 
42466 2 -35.5923 31.4142 
42465 2 -33.8603 31.4104 
42469 2 -36.4572 31.9161 
42467 2 -34.7252 31.9123 
42473 2 -37.3221 32.4181 
42470 2 -35.5901 32.4142 
42468 2 -33.858 32.4104 
42474 2 -36.455 32.9161 
42471 2 -34.7229 32.9123 
42472 2 -33.8558 33.4103 
42475 2 -35.5878 33.4142 
42476 2 -34.7207 33.9123 
42477 2 -33.8536 34.4103 
ITEM: TIMESTEP
450000
ITEM: NUMBER OF ATOMS
15
ITEM: BOX BOUNDS ff fm pp
-4.1000000000000000e+01 4.1000000000000000e+01
0.0000000000000000e+00 2.0000000000000000e+02
-2.5000000000000000e-01 2.5000000000000000e-01
ITEM: ATOMS id type x y 
42463 2 -33.2764 28.2371 
42466 2 -35.0908 29.0784 
42464 2 -34.1836 28.6578 
42469 2 -35.998 29.4991 
42467 2 -34.2728 29.6537 
42465 2 -33.3656 29.2331 
42473 2 -36.9052 29.9197 
42470 2 -35.18 30.0744 
42468 2 -33.4549 30.2291 
42474 2 -36.0872 30.495 
42471 2 -34.3621 30.6497 
42475 2 -35.2693 31.0704 
42472 2 -33.5442 31.2251 
42476 2 -34.4514 31.6457 
42477 2 -33.6335 32.2211 
ITEM: TIMESTEP
460000
ITEM: NUMBER OF ATOMS
15
ITEM: BOX BOUNDS ff fm pp
-4.1000000000000000e+01 4.1000000000000000e+01
0.0000000000000000e+00 2.0000000000000000e+02
-2.5000000000000000e-01 2.5000000000000000e-01
ITEM: ATOMS id type x y 
42463 2 -32.6486 26.0551 
42466 2 -34.5356 26.7178 
42464 2 -33.5921 26.3865 
42473 2 -36.4225 27.3804 
42469 2 -35.479 27.0491 
42467 2 -33.7768 27.3692 
42465 2 -32.8334 27.0379 
42470 2 -34.7203 27.7005 
42468 2 -33.0181 28.0206 
42474 2 -35.6638 28.0319 
42471 2 -33.9616 28.352 
42475 2 -34.9051 28.6833 
42472 2 -33.2029 29.0034 
42476 2 -34.1464 29.3347 
42477 2 -33.3877 29.9862 
ITEM: TIMESTEP
470000
ITEM: NUMBER OF ATOMS
15
ITEM: BOX BOUNDS ff fm pp
-4.1000000000000000e+01 4.1000000000000000e+01
0.0000000000000000e+00 2.0000000000000000e+02
-2.5000000000000000e-01 2.5000000000000000e-01
ITEM: ATOMS id type x y 
42464 2 -32.9847 24.1834 
42463 2 -32.0164 23.9338 
42473 2 -35.8896 24.9324 
42469 2 -34.9213 24.6827 
42466 2 -33.953 24.4331 
42465 2 -32.2843 24.8972 
42470 2 -34.2209 25.3965 
42467 2 -33.2526 25.1468 
42474 2 -35.1892 25.6461 
42471 2 -33.5205 26.1103 
42468 2 -32.5522 25.8606 
42475 2 -34.4889 26.3599 
42472 2 -32.8202 26.824 
42476 2 -33.7885 27.0737 
42477 2 -33.0881 27.7874 
ITEM: TIMESTEP
480000
ITEM: NUMBER OF ATOMS
15
ITEM: BOX BOUNDS ff fm pp
-4.1000000000000000e+01 4.1000000000000000e+01
0.0000000000000000e+00 2.0000000000000000e+02
-2.5000000000000000e-01 2.5000000000000000e-01
ITEM: ATOMS id type x y 
42463 2 -31.3914 21.985 
42473 2 -35.3401 22.6227 
42469 2 -34.353 22.4633 
42466 2 -33.3658 22.3039 
42464 2 -32.3786 22.1444 
42470 2 -33.7213 23.2385 
42467 2 -32.7341 23.0791 
42465 2 -31.7469 22.9197 
42474 2 -34.7085 23.3979 
42468 2 -32.1024 23.8543 
42475 2 -34.0768 24.1732 
42471 2 -33.0896 24.0137 
42476 2 -33.4451 24.9484 
42472 2 -32.4579 24.789 
42477 2 -32.8134 25.7236 
ITEM: TIMESTEP
490000
ITEM: NUMBER OF ATOMS
15
ITEM: BOX BOUNDS ff fm pp
-4.1000000000000000e+01 4.1000000000000000e+01
0.0000000000000000e+00 2.0000000000000000e+02