ITEM: TIMESTEP
0
ITEM: NUMBER OF ATOMS
15
ITEM: BOX BOUNDS ff fm pp
-4.1000000000000000e+01 4.1000000000000000e+01
0.0000000000000000e+00 2.0000000000000000e+02
-2.5000000000000000e-01 2.5000000000000000e-01
ITEM: ATOMS id type x y 
42478 3 -10 140 
42479 3 -10.5 140.866 
42480 3 -9.5 140.866 
42481 3 -11 141.732 
42482 3 -10 141.732 
42483 3 -9 141.732 
42484 3 -11.5 142.598 
42485 3 -10.5 142.598 
42486 3 -9.5 142.598 
42487 3 -8.5 142.598 
42488 3 -12 143.464 
42489 3 -11 143.464 
42490 3 -10 143.464 
42491 3 -9 143.464 
42492 3 -8 143.464 
ITEM: TIMESTEP
10000
ITEM: NUMBER OF ATOMS
15
ITEM: BOX BOUNDS ff fm pp
-4.1000000000000000e+01 4.1000000000000000e+01
0.0000000000000000e+00 2.0000000000000000e+02
-2.5000000000000000e-01 2.5000000000000000e-01
ITEM: ATOMS id type x y 
42478 3 -10 139.875 
42479 3 -10.5 140.741 
42480 3 -9.5 140.741 
42481 3 -11 141.607 
42482 3 -10 141.607 
42483 3 -9 141.607 
42484 3 -11.5 142.473 
42485 3 -10.5 142.473 
42486 3 -9.5 142.473 
42487 3 -8.5 142.473 
42488 3 -12 143.339 
42489 3 -11 143.339 
42490 3 -10 143.339 
42491 3 -9 143.339 
42492 3 -8 143.339 
ITEM: TIMESTEP
20000
ITEM: NUMBER OF ATOMS
15
ITEM: BOX BOUNDS ff fm pp
-4.1000000000000000e+01 4.1000000000000000e+01
0.0000000000000000e+00 2.0000000000000000e+02
-2.5000000000000000e-01 2.5000000000000000e-01
ITEM: ATOMS id type x y 
42478 3 -10 139.5 
42479 3 -10.5 140.366 
42480 3 -9.5 140.366 
42481 3 -11 141.232 
42482 3 -10 141.232 
42483 3 -9 141.232 
42484 3 -11.5 142.098 
42485 3 -10.5 142.098 
42486 3 -9.5 142.098 
42487 3 -8.5 142.098 
42488 3 -12 142.964 
42489 3 -11 142.964 
42490 3 -10 142.964 
42491 3 -9 142.964 
42492 3 -8 142.964 
ITEM: TIMESTEP
30000
ITEM: NUMBER OF ATOMS
15
ITEM: BOX BOUNDS ff fm pp
-4.1000000000000000e+01 4.1000000000000000e+01
0.0000000000000000e+00 2.0000000000000000e+02
-2.5000000000000000e-01 2.5000000000000000e-01
ITEM: ATOMS id type x y 
42478 3 -10 138.875 
42479 3 -10.5 139.741 
42480 3 -9.5 139.741 
42481 3 -11 140.607 
42482 3 -10 140.607 
42483 3 -9 140.607 
42484 3 -11.5 141.473 
42485 3 -10.5 141.473 
42486 3 -9.5 141.473 
42487 3 -8.5 141.473 
42488 3 -12 142.339 
42489 3 -11 142.339 
42490 3 -10 142.339 
42491 3 -9 142.339 
42492 3 -8 142.339 
ITEM: TIMESTEP
40000
ITEM: NUMBER OF ATOMS
15
ITEM: BOX BOUNDS ff fm pp
-4.1000000000000000e+01 4.1000000000000000e+01
0.0000000000000000e+00 2.0000000000000000e+02
-2.5000000000000000e-01 2.5000000000000000e-01
ITEM: ATOMS id type x y 
42478 3 -10 138 
42479 3 -10.5 138.866 
42480 3 -9.5 138.866 
42481 3 -11 139.732 
42482 3 -10 139.732 
42483 3 -9 139.732 
42484 3 -11.5 140.598 
42485 3 -10.5 140.598 
42486 3 -9.5 140.598 
42487 3 -8.5 140.598 
42488 3 -12 141.464 
42489 3 -11 141.464 
42490 3 -10 141.464 
42491 3 -9 141.464 
42492 3 -8 141.464 
ITEM: TIMESTEP
50000
ITEM: NUMBER OF ATOMS
15
ITEM: BOX BOUNDS ff fm pp
-4.1000000000000000e+01 4.1000000000000000e+01
0.0000000000000000e+00 2.0000000000000000e+02
-2.5000000000000000e-01 2.5000000000000000e-01
ITEM: ATOMS id type x y 
42478 3 -10 136.875 
42479 3 -10.5 137.741 
42480 3 -9.5 137.741 
42481 3 -11 138.607 
42482 3 -10 138.607 
42483 3 -9 138.607 
42484 3 -11.5 139.473 
42485 3 -10.5 139.473 
42486 3 -9.5 139.473 
42487 3 -8.5 139.473 
42488 3 -12 140.339 
42489 3 -11 140.339 
42490 3 -10 140.339 
42491 3 -9 140.339 
42492 3 -8 140.339 
ITEM: TIMESTEP
60000
ITEM: NUMBER OF ATOMS
15
ITEM: BOX BOUNDS ff fm pp
-4.1000000000000000e+01 4.1000000000000000e+01
0.0000000000000000e+00 2.0000000000000000e+02
-2.5000000000000000e-01 2.5000000000000000e-01
ITEM: ATOMS id type x y 
42478 3 -10 135.5 
42479 3 -10.5 136.366 
42480 3 -9.5 136.366 
42481 3 -11 137.232 
42482 3 -10 137.232 
42483 3 -9 137.232 
42484 3 -11.5 138.098 
42485 3 -10.5 138.098 
42486 3 -9.5 138.098 
42487 3 -8.5 138.098 
42488 3 -12 138.964 
42489 3 -11 138.964 
42490 3 -10 138.964 
42491 3 -9 138.964 
42492 3 -8 138.964 
ITEM: TIMESTEP
70000
ITEM: NUMBER OF ATOMS
15
ITEM: BOX BOUNDS ff fm pp
-4.1000000000000000e+01 4.1000000000000000e+01
0.0000000000000000e+00 2.0000000000000000e+02
-2.5000000000000000e-01 2.5000000000000000e-01
ITEM: ATOMS id type x y 
42478 3 -10 133.875 
42479 3 -10.5 134.741 
42480 3 -9.5 134.741 
42481 3 -11 135.607 
42482 3 -10 135.607 
42483 3 -9 135.607 
42484 3 -11.5 136.473 
42485 3 -10.5 136.473 
42486 3 -9.5 136.473 
42487 3 -8.5 136.473 
42488 3 -12 137.339 
42489 3 -11 137.339 
42490 3 -10 137.339 
42491 3 -9 137.339 
42492 3 -8 137.339 
ITEM: TIMESTEP
80000
ITEM: NUMBER OF ATOMS
15
ITEM: BOX BOUNDS ff fm pp
-4.1000000000000000e+01 4.1000000000000000e+01
0.0000000000000000e+00 2.0000000000000000e+02
-2.5000000000000000e-01 2.5000000000000000e-01
ITEM: ATOMS id type x y 
42478 3 -10 132 
42479 3 -10.5 132.866 
42480 3 -9.5 132.866 
42481 3 -11 133.732 
42482 3 -10 133.732 
42483 3 -9 133.732 
42484 3 -11.5 134.598 
42485 3 -10.5 134.598 
42486 3 -9.5 134.598 
42487 3 -8.5 134.598 
42488 3 -12 135.464 
42489 3 -11 135.464 
42490 3 -10 135.464 
42491 3 -9 135.464 
42492 3 -8 135.464 
ITEM: TIMESTEP
90000
ITEM: NUMBER OF ATOMS
15
ITEM: BOX BOUNDS ff fm pp
-4.1000000000000000e+01 4.1000000000000000e+01
0.0000000000000000e+00 2.0000000000000000e+02
-2.5000000000000000e-01 2.5000000000000000e-01
ITEM: ATOMS id type x y 
42478 3 -10 129.875 
42479 3 -10.5 130.741 
42480 3 -9.5 130.741 
42481 3 -11 131.607 
42482 3 -10 131.607 
42483 3 -9 131.607 
42484 3 -11.5 132.473 
42485 3 -10.5 132.473 
42486 3 -9.5 132.473 
42487 3 -8.5 132.473 
42488 3 -12 133.339 
42489 3 -11 133.339 
42490 3 -10 133.339 
42491 3 -9 133.339 
42492 3 -8 133.339 
ITEM: TIMESTEP
100000
ITEM: NUMBER OF ATOMS
15
ITEM: BOX BOUNDS ff fm pp
-4.1000000000000000e+01 4.1000000000000000e+01
0.0000000000000000e+00 2.0000000000000000e+02
-2.5000000000000000e-01 2.5000000000000000e-01
ITEM: ATOMS id type x y 
42478 3 -10 127.5 
42479 3 -10.5 128.366 
42480 3 -9.5 128.366 
42481 3 -11 129.232 
42482 3 -10 129.232 
42483 3 -9 129.232 
42484 3 -11.5 130.098 
42485 3 -10.5 130.098 
42486 3 -9.5 130.098 
42487 3 -8.5 130.098 
42488 3 -12 130.964 
42489 3 -11 130.964 
42490 3 -10 130.964 
42491 3 -9 130.964 
42492 3 -8 130.964 
ITEM: TIMESTEP
110000
ITEM: NUMBER OF ATOMS
15
ITEM: BOX BOUNDS ff fm pp
-4.1000000000000000e+01 4.1000000000000000e+01
0.0000000000000000e+00 2.0000000000000000e+02
-2.5000000000000000e-01 2.5000000000000000e-01
ITEM: ATOMS id type x y 
42478 3 -10 124.875 
42479 3 -10.5 125.741 
42480 3 -9.5 125.741 
42481 3 -11 126.607 
42482 3 -10 126.607 
42483 3 -9 126.607 
42484 3 -11.5 127.473 
42485 3 -10.5 127.473 
42486 3 -9.5 127.473 
42487 3 -8.5 127.473 
42488 3 -12 128.339 
42489 3 -11 128.339 
42490 3 -10 128.339 
42491 3 -9 128.339 
42492 3 -8 128.339 
ITEM: TIMESTEP
120000
ITEM: NUMBER OF ATOMS
15
ITEM: BOX BOUNDS ff fm pp
-4.1000000000000000e+01 4.1000000000000000e+01
0.0000000000000000e+00 2.0000000000000000e+02
-2.5000000000000000e-01 2.5000000000000000e-01
ITEM: ATOMS id type x y 
42478 3 -10 122 
42479 3 -10.5 122.866 
42480 3 -9.5 122.866 
42481 3 -11 123.732 
42482 3 -10 123.732 
42483 3 -9 123.732 
42484 3 -11.5 124.598 
42485 3 -10.5 124.598 
42486 3 -9.5 124.598 
42487 3 -8.5 124.598 
42488 3 -12 125.464 
42489 3 -11 125.464 
42490 3 -10 125.464 
42491 3 -9 125.464 
42492 3 -8 125.464 
ITEM: TIMESTEP
130000
ITEM: NUMBER OF ATOMS
15
ITEM: BOX BOUNDS ff fm pp
-4.1000000000000000e+01 4.1000000000000000e+01
0.0000000000000000e+00 2.0000000000000000e+02
-2.5000000000000000e-01 2.5000000000000000e-01
ITEM: ATOMS id type x y 
42478 3 -9.99429 118.886 
42479 3 -10.4955 119.751 
42480 3 -9.49555 119.753 
42481 3 -10.9968 120.617 
42482 3 -9.99681 120.618 
42483 3 -8.99681 120.62 
42484 3 -11.4981 121.482 
42485 3 -10.4981 121.483 
42486 3 -9.49807 121.485 
42487 3 -8.49807 121.486 
42488 3 -11.9993 122.347 
42489 3 -10.9993 122.349 
42490 3 -9.99933 122.35 
42491 3 -8.99933 122.352 
42492 3 -7.99933 122.353 
ITEM: TIMESTEP
140000
ITEM: NUMBER OF ATOMS
15
ITEM: BOX BOUNDS ff fm pp
-4.1000000000000000e+01 4.1000000000000000e+01
0.0000000000000000e+00 2.0000000000000000e+02
-2.5000000000000000e-01 2.5000000000000000e-01
ITEM: ATOMS id type x y 
42478 3 -9.98856 115.636 
42479 3 -10.4902 116.501 
42480 3 -9.49024 116.503 
42481 3 -10.9919 117.366 
42482 3 -9.99191 117.368 
42483 3 -8.99191 117.37 
42484 3 -11.4936 118.231 
42485 3 -10.4936 118.233 
42486 3 -9.49358 118.235 
42487 3 -8.49359 118.237 
42488 3 -11.9953 119.096 
42489 3 -10.9953 119.098 
42490 3 -9.99526 119.1 
42491 3 -8.99526 119.102 
42492 3 -7.99526 119.104 
ITEM: TIMESTEP
150000
ITEM: NUMBER OF ATOMS
15
ITEM: BOX BOUNDS ff fm pp
-4.1000000000000000e+01 4.1000000000000000e+01
0.0000000000000000e+00 2.0000000000000000e+02
-2.5000000000000000e-01 2.5000000000000000e-01
ITEM: ATOMS id type x y 
42478 3 -10.0349 112.498 
42479 3 -10.5282 113.368 
42480 3 -9.52828 113.36 
42481 3 -11.0216 114.238 
42482 3 -10.0216 114.23 
42483 3 -9.02161 114.222 
42484 3 -11.5149 115.107 
42485 3 -10.5149 115.1 
42486 3 -9.51491 115.092 
42487 3 -8.51494 115.084 
42488 3 -12.0082 115.977 
42489 3 -11.0082 115.969 
42490 3 -10.0082 115.962 
42491 3 -9.00825 115.954 
42492 3 -8.00828 115.946 
ITEM: TIMESTEP
160000
ITEM: NUMBER OF ATOMS
15
ITEM: BOX BOUNDS ff fm pp
-4.1000000000000000e+01 4.1000000000000000e+01
0.0000000000000000e+00 2.0000000000000000e+02
-2.5000000000000000e-01 2.5000000000000000e-01
ITEM: ATOMS id type x y 
42478 3 -10.1775 109.547 
42479 3 -10.6475 110.43 
42480 3 -9.64804 110.395 
42481 3 -11.1174 111.312 
42482 3 -10.118 111.278 
42483 3 -9.11859 111.244 
42484 3 -11.5874 112.195 
42485 3 -10.588 112.161 
42486 3 -9.58854 112.126 
42487 3 -8.58913 112.092 
42488 3 -12.0573 113.078 
42489 3 -11.0579 113.043 
42490 3 -10.0585 113.009 
42491 3 -9.05909 112.975 
42492 3 -8.05968 112.94 
ITEM: TIMESTEP
170000
ITEM: NUMBER OF ATOMS
15
ITEM: BOX BOUNDS ff fm pp
-4.1000000000000000e+01 4.1000000000000000e+01
0.0000000000000000e+00 2.0000000000000000e+02
-2.5000000000000000e-01 2.5000000000000000e-01
ITEM: ATOMS id type x y 
42478 3 -10.3197 106.838 
42479 3 -10.7809 107.726 
42480 3 -9.78184 107.681 
42481 3 -11.242 108.613 
42482 3 -10.243 108.569 
42483 3 -9.24399 108.524 
42484 3 -11.7032 109.5 
42485 3 -10.7042 109.456 
42486 3 -9.70516 109.412 
42487 3 -8.70615 109.367 
42491 3 -9.16732 110.255 
42492 3 -8.1683 110.21 
42488 3 -12.1644 110.388 
42489 3 -11.1654 110.343 
42490 3 -10.1663 110.299 
ITEM: TIMESTEP
180000
ITEM: NUMBER OF ATOMS
15
ITEM: BOX BOUNDS ff fm pp
-4.1000000000000000e+01 4.1000000000000000e+01
0.0000000000000000e+00 2.0000000000000000e+02
-2.5000000000000000e-01 2.5000000000000000e-01
ITEM: ATOMS id type x y 
42478 3 -10.5375 104.233 
42479 3 -10.9788 105.131 
42480 3 -9.98102 105.064 
42481 3 -11.4201 106.028 
42482 3 -10.4223 105.962 
42483 3 -9.42454 105.895 
42484 3 -11.8614 106.925 
42485 3 -10.8636 106.859 
42486 3 -9.86585 106.792 
42487 3 -8.86806 106.726 
42488 3 -12.3027 107.823 
42489 3 -11.3049 107.756 
42490 3 -10.3072 107.69 
42491 3 -9.30937 107.623 
42492 3 -8.31158 107.557 
ITEM: TIMESTEP
190000
ITEM: NUMBER OF ATOMS
15
ITEM: BOX BOUNDS ff fm pp
-4.1000000000000000e+01 4.1000000000000000e+01
0.0000000000000000e+00 2.0000000000000000e+02
-2.5000000000000000e-01 2.5000000000000000e-01
ITEM: ATOMS id type x y 
42478 3 -10.7832 101.668 
42479 3 -11.2149 102.57 
42480 3 -10.2179 102.493 
42481 3 -11.6467 103.472 
42482 3 -10.6496 103.395 
42483 3 -9.65262 103.318 
42486 3 -10.0844 104.22 
42487 3 -9.08735 104.143 
42484 3 -12.0784 104.374 
42485 3 -11.0814 104.297 
42488 3 -12.5102 105.276 
42489 3 -11.5132 105.199 
42490 3 -10.5161 105.122 
42491 3 -9.5191 105.045 
42492 3 -8.52208 104.968 
ITEM: TIMESTEP
200000
ITEM: NUMBER OF ATOMS
15
ITEM: BOX BOUNDS ff fm pp
-4.1000000000000000e+01 4.1000000000000000e+01
0.0000000000000000e+00 2.0000000000000000e+02
-2.5000000000000000e-01 2.5000000000000000e-01
ITEM: ATOMS id type x y 
42478 3 -11.0749 99.0785 
42479 3 -11.5015 99.9829 
42480 3 -10.5049 99.9001 
42481 3 -11.9281 100.887 
42482 3 -10.9315 100.805 
42483 3 -9.93493 100.722 
42484 3 -12.3546 101.792 
42485 3 -11.3581 101.709 
42486 3 -10.3615 101.626 
42487 3 -9.36494 101.543 
42492 3 -8.79495 102.365 
42488 3 -12.7812 102.696 
42489 3 -11.7846 102.613 
42490 3 -10.7881 102.531 
42491 3 -9.79151 102.448 
ITEM: TIMESTEP
210000
ITEM: NUMBER OF ATOMS
15
ITEM: BOX BOUNDS ff fm pp
-4.1000000000000000e+01 4.1000000000000000e+01
0.0000000000000000e+00 2.0000000000000000e+02
-2.5000000000000000e-01 2.5000000000000000e-01
ITEM: ATOMS id type x y 
42478 3 -11.397 96.4528 
42479 3 -11.8258 97.3562 
42480 3 -10.829 97.2758 
42482 3 -11.2578 98.1792 
42483 3 -10.2611 98.0988 
42481 3 -12.2546 98.2596 
42484 3 -12.6834 99.1629 
42485 3 -11.6866 99.0826 
42486 3 -10.6898 99.0022 
42487 3 -9.69308 98.9218 
42489 3 -12.1154 99.986 
42490 3 -11.1186 99.9056 
42491 3 -10.1219 99.8252 
42492 3 -9.1251 99.7449 
42488 3 -13.1122 100.066 
ITEM: TIMESTEP
220000
ITEM: NUMBER OF ATOMS
15
ITEM: BOX BOUNDS ff fm pp
-4.1000000000000000e+01 4.1000000000000000e+01
0.0000000000000000e+00 2.0000000000000000e+02
-2.5000000000000000e-01 2.5000000000000000e-01
ITEM: ATOMS id type x y 
42478 3 -11.7288 93.7608 
42480 3 -11.1723 94.5916 
42479 3 -12.17 94.6581 
42481 3 -12.6113 95.5555 
42482 3 -11.6136 95.489 
42483 3 -10.6158 95.4225 
42485 3 -12.0549 96.3863 
42486 3 -11.0571 96.3198 
42487 3 -10.0593 96.2533 
42484 3 -13.0526 96.4528 
42488 3 -13.4939 97.3502 
42489 3 -12.4961 97.2836 
42490 3 -11.4984 97.2171 
42491 3 -10.5006 97.1506 
42492 3 -9.50279 97.0841 
ITEM: TIMESTEP
230000
ITEM: NUMBER OF ATOMS
15
ITEM: BOX BOUNDS ff fm pp
-4.1000000000000000e+01 4.1000000000000000e+01
0.0000000000000000e+00 2.0000000000000000e+02
-2.5000000000000000e-01 2.5000000000000000e-01
ITEM: ATOMS id type x y 
42478 3 -12.0653 91.0148 
42479 3 -12.5367 91.8966 
42480 3 -11.5373 91.864 
42481 3 -13.0082 92.7785 
42482 3 -12.0087 92.7458 
42483 3 -11.0093 92.7132 
42484 3 -13.4797 93.6603 
42485 3 -12.4802 93.6277 
42486 3 -11.4807 93.5951 
42487 3 -10.4813 93.5624 
42488 3 -13.9511 94.5422 
42489 3 -12.9517 94.5096 
42490 3 -11.9522 94.4769 
42491 3 -10.9527 94.4443 
42492 3 -9.95326 94.4117 
ITEM: TIMESTEP
240000
ITEM: NUMBER OF ATOMS
15
ITEM: BOX BOUNDS ff fm pp
-4.1000000000000000e+01 4.1000000000000000e+01
0.0000000000000000e+00 2.0000000000000000e+02
-2.5000000000000000e-01 2.5000000000000000e-01
ITEM: ATOMS id type x y 
42478 3 -12.4597 88.2127 
42479 3 -12.957 89.0803 
42480 3 -11.957 89.0771 
42481 3 -13.4543 89.9478 
42482 3 -12.4543 89.9447 
42483 3 -11.4543 89.9415 
42484 3 -13.9515 90.8154 
42485 3 -12.9515 90.8123 
42486 3 -11.9515 90.8091 
42487 3 -10.9515 90.806 
42488 3 -14.4488 91.683 
42489 3 -13.4488 91.6798 
42490 3 -12.4488 91.6767 
42491 3 -11.4488 91.6735 
42492 3 -10.4488 91.6704 
ITEM: TIMESTEP
250000
ITEM: NUMBER OF ATOMS
15
ITEM: BOX BOUNDS ff fm pp
-4.1000000000000000e+01 4.1000000000000000e+01
0.0000000000000000e+00 2.0000000000000000e+02
-2.5000000000000000e-01 2.5000000000000000e-01
ITEM: ATOMS id type x y 
42478 3 -12.8953 85.3171 
42479 3 -13.4127 86.1728 
42480 3 -12.4129 86.193 
42481 3 -13.9301 87.0285 
42482 3 -12.9303 87.0487 
42483 3 -11.9305 87.0689 
42484 3 -14.4474 87.8843 
42485 3 -13.4477 87.9044 
42486 3 -12.4479 87.9246 
42487 3 -11.4481 87.9448 
42488 3 -14.9648 88.74 
42489 3 -13.965 88.7602 
42490 3 -12.9652 88.7804 
42491 3 -11.9654 88.8005 
42492 3 -10.9656 88.8207 
ITEM: TIMESTEP
260000
ITEM: NUMBER OF ATOMS
15
ITEM: BOX BOUNDS ff fm pp
-4.1000000000000000e+01 4.1000000000000000e+01
0.0000000000000000e+00 2.0000000000000000e+02
-2.5000000000000000e-01 2.5000000000000000e-01
ITEM: ATOMS id type x y 
42478 3 -13.3493 82.3208 
42479 3 -13.891 83.1614 
42480 3 -12.8922 83.2102 
42481 3 -14.4326 84.002 
42482 3 -13.4338 84.0507 
42483 3 -12.435 84.0995 
42484 3 -14.9743 84.8425 
42485 3 -13.9755 84.8913 
42486 3 -12.9766 84.9401 
42487 3 -11.9778 84.9889 
42488 3 -15.5159 85.6831 
42489 3 -14.5171 85.7319 
42490 3 -13.5183 85.7807 
42491 3 -12.5195 85.8294 
42492 3 -11.5207 85.8782 
ITEM: TIMESTEP
270000
ITEM: NUMBER OF ATOMS
15
ITEM: BOX BOUNDS ff fm pp
-4.1000000000000000e+01 4.1000000000000000e+01
0.0000000000000000e+00 2.0000000000000000e+02
-2.5000000000000000e-01 2.5000000000000000e-01
ITEM: ATOMS id type x y 
42478 3 -13.8216 79.2234 
42479 3 -14.3885 80.0472 
42480 3 -13.3916 80.1262 
42481 3 -14.9553 80.871 
42482 3 -13.9584 80.95 
42483 3 -12.9616 81.029 
42484 3 -15.5222 81.6948 
42485 3 -14.5253 81.7738 
42486 3 -13.5284 81.8528 
42487 3 -12.5315 81.9318 
42488 3 -16.089 82.5186 
42489 3 -15.0921 82.5976 
42490 3 -14.0953 82.6766 
42491 3 -13.0984 82.7556 
42492 3 -12.1015 82.8345 
ITEM: TIMESTEP
280000
ITEM: NUMBER OF ATOMS
15
ITEM: BOX BOUNDS ff fm pp
-4.1000000000000000e+01 4.1000000000000000e+01
0.0000000000000000e+00 2.0000000000000000e+02
-2.5000000000000000e-01 2.5000000000000000e-01
ITEM: ATOMS id type x y 
42478 3 -14.3196 76.0164 
42479 3 -14.9098 76.8236 
42480 3 -13.9156 76.9311 
42481 3 -15.5 77.6308 
42482 3 -14.5058 77.7383 
42483 3 -13.5116 77.8458 
42484 3 -16.0903 78.438 
42485 3 -15.0961 78.5455 
42486 3 -14.1019 78.6531 
42487 3 -13.1077 78.7606 
42488 3 -16.6805 79.2452 
42489 3 -15.6863 79.3527 
42490 3 -14.6921 79.4603 
42491 3 -13.6979 79.5678 
42492 3 -12.7037 79.6753 
ITEM: TIMESTEP
290000
ITEM: NUMBER OF ATOMS
15
ITEM: BOX BOUNDS ff fm pp
-4.1000000000000000e+01 4.1000000000000000e+01
0.0000000000000000e+00 2.0000000000000000e+02
-2.5000000000000000e-01 2.5000000000000000e-01
ITEM: ATOMS id type x y 
42478 3 -14.8226 72.71 
42479 3 -15.4404 73.4963 
42480 3 -14.4505 73.6382 
42481 3 -16.0582 74.2826 
42482 3 -15.0683 74.4245 
42483 3 -14.0784 74.5663 
42484 3 -16.676 75.0689 
42485 3 -15.6861 75.2108 
42486 3 -14.6962 75.3526 
42488 3 -17.2938 75.8552 
42487 3 -13.7063 75.4945 
42489 3 -16.3039 75.9971 
42490 3 -15.314 76.139 
42491 3 -14.3241 76.2808 
42492 3 -13.3342 76.4227 
ITEM: TIMESTEP
300000
ITEM: NUMBER OF ATOMS
15
ITEM: BOX BOUNDS ff fm pp
-4.1000000000000000e+01 4.1000000000000000e+01
0.0000000000000000e+00 2.0000000000000000e+02
-2.5000000000000000e-01 2.5000000000000000e-01
ITEM: ATOMS id type x y 
42478 3 -15.3395 69.3057 
42479 3 -15.9867 70.068 
42480 3 -15.0029 70.2474 
42481 3 -16.634 70.8302 
42482 3 -15.6502 71.0096 
42484 3 -17.2812 71.5925 
42483 3 -14.6664 71.189 
42488 3 -17.9285 72.3547 
42485 3 -16.2974 71.7719 
42486 3 -15.3137 71.9513 
42487 3 -14.3299 72.1307 
42489 3 -16.9447 72.5341 
42490 3 -15.9609 72.7135 
42491 3 -14.9771 72.8929 
42492 3 -13.9934 73.0723 
ITEM: TIMESTEP
310000
ITEM: NUMBER OF ATOMS
15
ITEM: BOX BOUNDS ff fm pp
-4.1000000000000000e+01 4.1000000000000000e+01
0.0000000000000000e+00 2.0000000000000000e+02
-2.5000000000000000e-01 2.5000000000000000e-01
ITEM: ATOMS id type x y 
42479 3 -16.5464 66.571 
42478 3 -15.8748 65.83 
42480 3 -15.5689 66.7821 
42481 3 -17.2179 67.3119 
42482 3 -16.2405 67.523 
42484 3 -17.8895 68.0528 
42483 3 -15.263 67.7341 
42485 3 -16.912 68.2639 
42486 3 -15.9346 68.475 
42487 3 -14.9571 68.6862 
42488 3 -18.561 68.7938 
42489 3 -17.5836 69.0049 
42490 3 -16.6061 69.216 
42491 3 -15.6286 69.4271 
42492 3 -14.6512 69.6382 
ITEM: TIMESTEP
320000
ITEM: NUMBER OF ATOMS
15
ITEM: BOX BOUNDS ff fm pp
-4.1000000000000000e+01 4.1000000000000000e+01
0.0000000000000000e+00 2.0000000000000000e+02
-2.5000000000000000e-01 2.5000000000000000e-01
ITEM: ATOMS id type x y 
42478 3 -16.4095 62.299 
42479 3 -17.1019 63.0205 
42480 3 -16.1308 63.2593 
42481 3 -17.7943 63.742 
42484 3 -18.4866 64.4635 
42482 3 -16.8232 63.9808 
42483 3 -15.8521 64.2197 
42485 3 -17.5156 64.7023 
42486 3 -16.5445 64.9412 
42488 3 -19.179 65.185 
42489 3 -18.2079 65.4239 
42490 3 -17.2369 65.6627 
42487 3 -15.5735 65.18 
42491 3 -16.2658 65.9016 
42492 3 -15.2948 66.1404 
ITEM: TIMESTEP
330000
ITEM: NUMBER OF ATOMS
15
ITEM: BOX BOUNDS ff fm pp
-4.1000000000000000e+01 4.1000000000000000e+01
0.0000000000000000e+00 2.0000000000000000e+02
-2.5000000000000000e-01 2.5000000000000000e-01
ITEM: ATOMS id type x y 
42478 3 -16.9091 58.7509 
42479 3 -17.6265 59.4476 
42480 3 -16.6644 59.7205 
42481 3 -18.3438 60.1443 
42484 3 -19.0611 60.841 
42482 3 -17.3817 60.4172 
42483 3 -16.4197 60.6901 
42485 3 -18.0991 61.1139 
42486 3 -17.137 61.3868 
42488 3 -19.7785 61.5377 
42489 3 -18.8164 61.8106 
42490 3 -17.8544 62.0835 
42487 3 -16.175 61.6597 
42491 3 -16.8923 62.3564 
42492 3 -15.9303 62.6292 
ITEM: TIMESTEP
340000
ITEM: NUMBER OF ATOMS
15
ITEM: BOX BOUNDS ff fm pp
-4.1000000000000000e+01 4.1000000000000000e+01
0.0000000000000000e+00 2.0000000000000000e+02
-2.5000000000000000e-01 2.5000000000000000e-01
ITEM: ATOMS id type x y 
42478 3 -17.3705 55.2032 
42479 3 -18.1168 55.8687 
42481 3 -18.8632 56.5342 
42480 3 -17.1673 56.1823 
42484 3 -19.6095 57.1998 
42482 3 -17.9136 56.8478 
42483 3 -16.9641 57.1614 
42488 3 -20.3559 57.8653 
42485 3 -18.66 57.5133 
42486 3 -17.7104 57.8269 
42489 3 -19.4063 58.1789 
42490 3 -18.4568 58.4925 
42487 3 -16.7609 58.1405 
42491 3 -17.5072 58.806 
42492 3 -16.5576 59.1196 
ITEM: TIMESTEP
350000
ITEM: NUMBER OF ATOMS
15
ITEM: BOX BOUNDS ff fm pp
-4.1000000000000000e+01 4.1000000000000000e+01
0.0000000000000000e+00 2.0000000000000000e+02
-2.5000000000000000e-01 2.5000000000000000e-01
ITEM: ATOMS id type x y 
42478 3 -17.7977 51.6616 
42479 3 -18.5752 52.2904 
42481 3 -19.3527 52.9193 
42480 3 -17.6418 52.6493 
42484 3 -20.1302 53.5481 
42482 3 -18.4193 53.2782 
42483 3 -17.4859 53.6371 
42488 3 -20.9077 54.177 
42485 3 -19.1968 53.907 
42486 3 -18.2634 54.2659 
42489 3 -19.9743 54.5359 
42490 3 -19.0409 54.8948 
42487 3 -17.3301 54.6248 
42491 3 -18.1076 55.2537 
42492 3 -17.1742 55.6126 
ITEM: TIMESTEP
360000
ITEM: NUMBER OF ATOMS
15
ITEM: BOX BOUNDS ff fm pp
-4.1000000000000000e+01 4.1000000000000000e+01
0.0000000000000000e+00 2.0051200744064562e+02
-2.5000000000000000e-01 2.5000000000000000e-01
ITEM: ATOMS id type x y 
42478 3 -18.2019 48.1347 
42479 3 -19.0073 48.7274 
42481 3 -19.8126 49.3202 
42480 3 -18.0912 49.1285 
42484 3 -20.618 49.913 
42482 3 -18.8966 49.7213 
42483 3 -17.9805 50.1224 
42488 3 -21.4233 50.5057 
42485 3 -19.7019 50.314 
42486 3 -18.7859 50.7151 
42489 3 -20.5073 50.9068 
42490 3 -19.5913 51.3079 
42487 3 -17.8699 51.1162 
42491 3 -18.6752 51.709 
42492 3 -17.7592 52.11 
ITEM: TIMESTEP
370000
ITEM: NUMBER OF ATOMS
15
ITEM: BOX BOUNDS ff fm pp
-4.1000000000000000e+01 4.1000000000000000e+01
0.0000000000000000e+00 2.0101914256289209e+02
-2.5000000000000000e-01 2.5000000000000000e-01
ITEM: ATOMS id type x y 
42478 3 -18.5339 44.6771 
42479 3 -19.3706 45.2248 
42481 3 -20.2073 45.7724 
42480 3 -18.478 45.6755 
42484 3 -21.044 46.3201 
42482 3 -19.3146 46.2232 
42483 3 -18.422 46.6739 
42488 3 -21.8806 46.8677 
42489 3 -20.988 47.3185 
42485 3 -20.1513 46.7708 
42486 3 -19.2587 47.2216 
42490 3 -20.0954 47.7692 
42487 3 -18.366 47.6724 
42491 3 -19.2027 48.22 
42492 3 -18.3101 48.6708 
ITEM: TIMESTEP
380000
ITEM: NUMBER OF ATOMS
15
ITEM: BOX BOUNDS ff fm pp
-4.1000000000000000e+01 4.1000000000000000e+01
0.0000000000000000e+00 2.0128162966956086e+02
-2.5000000000000000e-01 2.5000000000000000e-01
ITEM: ATOMS id type x y 
42478 3 -18.7894 41.3175 
42479 3 -19.6615 41.8068 
42481 3 -20.5336 42.296 
42480 3 -18.8017 42.3174 
42484 3 -21.4058 42.7852 
42482 3 -19.6739 42.8067 
42488 3 -22.2779 43.2745 
42489 3 -21.4181 43.7851 
42485 3 -20.546 43.2959 
42486 3 -19.6862 43.8066 
42483 3 -18.8141 43.3173 
42490 3 -20.5583 44.2958 
42487 3 -18.8264 44.3172 
42491 3 -19.6986 44.8065 
42492 3 -18.8388 45.3171 
ITEM: TIMESTEP
390000
ITEM: NUMBER OF ATOMS
15
ITEM: BOX BOUNDS ff fm pp
-4.1000000000000000e+01 4.1000000000000000e+01
0.0000000000000000e+00 2.0129083946787219e+02
-2.5000000000000000e-01 2.5000000000000000e-01
ITEM: ATOMS id type x y 
42478 3 -19.0004 38.0294 
42481 3 -20.8014 38.8989 
42479 3 -19.9009 38.4641 
42484 3 -21.702 39.3336 
42482 3 -19.9746 39.4614 
42480 3 -19.0741 39.0266 
42488 3 -22.6025 39.7684 
42485 3 -20.8752 39.8961 
42483 3 -19.1478 40.0239 
42489 3 -21.7757 40.3309 
42486 3 -20.0484 40.4586 
42490 3 -20.9489 40.8934 
42487 3 -19.2216 41.0212 
42491 3 -20.1221 41.4559 
42492 3 -19.2953 42.0184 
ITEM: TIMESTEP
400000
ITEM: NUMBER OF ATOMS
15
ITEM: BOX BOUNDS ff fm pp
-4.1000000000000000e+01 4.1000000000000000e+01
0.0000000000000000e+00 2.0104982978455325e+02
-2.5000000000000000e-01 2.5000000000000000e-01
ITEM: ATOMS id type x y 
42479 3 -20.1037 35.1857 
42478 3 -19.1804 34.8017 
42481 3 -21.027 35.5697 
42480 3 -19.3094 35.7933 
42488 3 -22.8736 36.3378 
42484 3 -21.9503 35.9537 
42482 3 -20.2327 36.1773 
42489 3 -22.0793 36.9453 
42485 3 -21.156 36.5613 
42483 3 -19.4385 36.7849 
42490 3 -21.2851 37.5529 
42486 3 -20.3618 37.1689 
42491 3 -20.4908 38.1605 
42487 3 -19.5675 37.7765 
42492 3 -19.6966 38.7681 
ITEM: TIMESTEP
410000
ITEM: NUMBER OF ATOMS
15
ITEM: BOX BOUNDS ff fm pp
-4.1000000000000000e+01 4.1000000000000000e+01
0.0000000000000000e+00 2.0055691270786426e+02
-2.5000000000000000e-01 2.5000000000000000e-01
ITEM: ATOMS id type x y 
42478 3 -19.323 31.6386 
42479 3 -20.2647 31.975 
42484 3 -22.1481 32.6479 
42481 3 -21.2064 32.3115 
42480 3 -19.5025 32.6224 
42488 3 -23.0898 32.9843 
42485 3 -21.3859 33.2952 
42482 3 -20.4442 32.9588 
42489 3 -22.3276 33.6316 
42486 3 -20.6237 33.9425 
42483 3 -19.682 33.6061 
42490 3 -21.5654 34.2789 
42487 3 -19.8615 34.5898 
42491 3 -20.8032 34.9263 
42492 3 -20.0409 35.5736 
ITEM: TIMESTEP
420000
ITEM: NUMBER OF ATOMS
15
ITEM: BOX BOUNDS ff fm pp
-4.1000000000000000e+01 4.1000000000000000e+01
0.0000000000000000e+00 2.0000000000000000e+02
-2.5000000000000000e-01 2.5000000000000000e-01
ITEM: ATOMS id type x y 
42479 3 -20.4031 28.8949 
42478 3 -19.4496 28.5936 
42484 3 -22.3101 29.4974 
42481 3 -21.3566 29.1961 
42480 3 -19.6654 29.57 
42488 3 -23.2637 29.7986 
42485 3 -21.5725 30.1725 
42482 3 -20.6189 29.8713 
42489 3 -22.526 30.4738 
42486 3 -20.8348 30.8477 
42483 3 -19.8813 30.5464 
42490 3 -21.7883 31.1489 
42487 3 -20.0971 31.5228 
42491 3 -21.0506 31.8241 
42492 3 -20.3129 32.4992 
ITEM: TIMESTEP
430000
ITEM: NUMBER OF ATOMS
15
ITEM: BOX BOUNDS ff fm pp
-4.1000000000000000e+01 4.1000000000000000e+01
0.0000000000000000e+00 2.0000000000000000e+02
-2.5000000000000000e-01 2.5000000000000000e-01
ITEM: ATOMS id type x y 
42479 3 -20.5274 25.9081 
42478 3 -19.5666 25.6312 
42488 3 -23.41 26.739 
42484 3 -22.4492 26.462 
42481 3 -21.4883 26.1851 
42480 3 -19.8071 26.6018 
42485 3 -21.7289 27.1557 
42482 3 -20.768 26.8787 
42489 3 -22.6897 27.4326 
42486 3 -21.0086 27.8493 
42483 3 -20.0477 27.5724 
42490 3 -21.9694 28.1263 
42487 3 -20.2883 28.543 
42491 3 -21.2491 28.82 
42492 3 -20.5288 29.5136 
ITEM: TIMESTEP
440000
ITEM: NUMBER OF ATOMS
15
ITEM: BOX BOUNDS ff fm pp
-4.1000000000000000e+01 4.1000000000000000e+01
0.0000000000000000e+00 2.0000000000000000e+02
-2.5000000000000000e-01 2.5000000000000000e-01
ITEM: ATOMS id type x y 
42479 3 -20.6236 23.0441 
42478 3 -19.66 22.7769 
42484 3 -22.5509 23.5784 
42481 3 -21.5873 23.3112 
42480 3 -19.9104 23.745 
42488 3 -23.5145 23.8456 
42485 3 -21.8376 24.2794 
42482 3 -20.874 24.0122 
42489 3 -22.8013 24.5466 
42483 3 -20.1608 24.7131 
42490 3 -22.088 25.2475 
42486 3 -21.1244 24.9803 
42491 3 -21.3748 25.9484 
42487 3 -20.4112 25.6812 
42492 3 -20.6616 26.6494 
ITEM: TIMESTEP
450000
ITEM: NUMBER OF ATOMS
15
ITEM: BOX BOUNDS ff fm pp
-4.1000000000000000e+01 4.1000000000000000e+01
0.0000000000000000e+00 2.0000000000000000e+02
-2.5000000000000000e-01 2.5000000000000000e-01
ITEM: ATOMS id type x y 
42478 3 -19.7341 20.0341 
42481 3 -21.6561 20.5871 
42479 3 -20.6951 20.3106 
42488 3 -23.578 21.1401 
42484 3 -22.6171 20.8636 
42482 3 -20.9361 21.2811 
42480 3 -19.9751 21.0046 
42489 3 -22.8581 21.8341 
42485 3 -21.8971 21.5576 
42490 3 -22.1381 22.5281 
42486 3 -21.1771 22.2516 
42483 3 -20.2161 21.9751 
42487 3 -20.4571 22.9456 
42491 3 -21.4181 23.2221 
42492 3 -20.6982 23.9161 
ITEM: TIMESTEP
460000
ITEM: NUMBER OF ATOMS
15
ITEM: BOX BOUNDS ff fm pp
-4.1000000000000000e+01 4.1000000000000000e+01
0.0000000000000000e+00 2.0000000000000000e+02
-2.5000000000000000e-01 2.5000000000000000e-01
ITEM: ATOMS id type x y 
42479 3 -20.66 17.7699 
42478 3 -19.6961 17.5038 
42484 3 -22.5879 18.3021 
42481 3 -21.6239 18.036 
42488 3 -23.5518 18.5682 
42485 3 -21.8754 19.0039 
42482 3 -20.9115 18.7378 
42480 3 -19.9476 18.4717 
42489 3 -22.8393 19.27 
42483 3 -20.1991 19.4395 
42490 3 -22.1269 19.9717 
42486 3 -21.163 19.7056 
42491 3 -21.4145 20.6735 
42487 3 -20.4506 20.4074 
42492 3 -20.702 21.3752 
ITEM: TIMESTEP
470000
ITEM: NUMBER OF ATOMS
15
ITEM: BOX BOUNDS ff fm pp
-4.1000000000000000e+01 4.1000000000000000e+01
0.0000000000000000e+00 2.0000000000000000e+02
-2.5000000000000000e-01 2.5000000000000000e-01
ITEM: ATOMS id type x y 
42478 3 -19.3646 15.4355 
42481 3 -21.3227 15.8429 
42479 3 -20.3436 15.6392 
42488 3 -23.2807 16.2502 
42484 3 -22.3017 16.0465 
42482 3 -20.6567 16.5889 
42480 3 -19.6777 16.3852 
42489 3 -22.6148 16.9962 
42485 3 -21.6358 16.7926 
42490 3 -21.9489 17.7423 
42486 3 -20.9698 17.5386 
42483 3 -19.9908 17.3349 
42487 3 -20.3039 18.2846 
42491 3 -21.2829 18.4883 
42492 3 -20.617 19.2343 
ITEM: TIMESTEP
480000
ITEM: NUMBER OF ATOMS
15
ITEM: BOX BOUNDS ff fm pp
-4.1000000000000000e+01 4.1000000000000000e+01
0.0000000000000000e+00 2.0000000000000000e+02
-2.5000000000000000e-01 2.5000000000000000e-01
ITEM: ATOMS id type x y 
42484 3 -21.8084 14.2437 
42481 3 -20.817 14.1131 
42479 3 -19.8256 13.9825 
42478 3 -18.8341 13.8519 
42488 3 -22.7998 14.3743 
42480 3 -19.2167 14.7758 
42489 3 -22.191 15.1676 
42485 3 -21.1995 15.037 
42482 3 -20.2081 14.9064 
42490 3 -21.5821 15.9609 
42486 3 -20.5907 15.8303 
42483 3 -19.5993 15.6997 
42487 3 -19.9819 16.6236 
42491 3 -20.9733 16.7542 
42492 3 -20.3644 17.5475 
ITEM: TIMESTEP
490000
ITEM: NUMBER OF ATOMS
15
ITEM: BOX BOUNDS ff fm pp
-4.1000000000000000e+01 4.1000000000000000e+01
0.0000000000000000e+00 2.0000000000000000e+02
-2.5000000000000000e-01 2.5000000000000000e-01
ITEM: ATOMS id type x y 
42484 3 -21.2338 13.1014 
42481 3 -20.2414 12.9789 