ITEM: TIMESTEP
0
ITEM: NUMBER OF ATOMS
15
ITEM: BOX BOUNDS ff fm pp
-4.1000000000000000e+01 4.1000000000000000e+01
0.0000000000000000e+00 2.0000000000000000e+02
-2.5000000000000000e-01 2.5000000000000000e-01
ITEM: ATOMS id type x y 
42494 4 -0.5 140.866 
42496 4 -1 141.732 
42499 4 -1.5 142.598 
42500 4 -0.5 142.598 
42503 4 -2 143.464 
42504 4 -1 143.464 
42493 4 0 140 
42495 4 0.5 140.866 
42497 4 0 141.732 
42498 4 1 141.732 
42501 4 0.5 142.598 
42502 4 1.5 142.598 
42505 4 0 143.464 
42506 4 1 143.464 
42507 4 2 143.464 
ITEM: TIMESTEP
10000
ITEM: NUMBER OF ATOMS
15
ITEM: BOX BOUNDS ff fm pp
-4.1000000000000000e+01 4.1000000000000000e+01
0.0000000000000000e+00 2.0000000000000000e+02
-2.5000000000000000e-01 2.5000000000000000e-01
ITEM: ATOMS id type x y 
42493 4 -2.10327e-17 139.875 
42494 4 -0.5 140.741 
42496 4 -1 141.607 
42497 4 -1.67396e-17 141.607 
42499 4 -1.5 142.473 
42500 4 -0.5 142.473 
42503 4 -2 143.339 
42504 4 -1 143.339 
42505 4 -1.24466e-17 143.339 
42495 4 0.5 140.741 
42498 4 1 141.607 
42501 4 0.5 142.473 
42502 4 1.5 142.473 
42506 4 1 143.339 
42507 4 2 143.339 
ITEM: TIMESTEP
20000
ITEM: NUMBER OF ATOMS
15
ITEM: BOX BOUNDS ff fm pp
-4.1000000000000000e+01 4.1000000000000000e+01
0.0000000000000000e+00 2.0000000000000000e+02
-2.5000000000000000e-01 2.5000000000000000e-01
ITEM: ATOMS id type x y 
42493 4 -8.41307e-17 139.5 
42494 4 -0.5 140.366 
42496 4 -1 141.232 
42497 4 -6.69584e-17 141.232 
42499 4 -1.5 142.098 
42500 4 -0.5 142.098 
42503 4 -2 142.964 
42504 4 -1 142.964 
42505 4 -4.97862e-17 142.964 
42495 4 0.5 140.366 
42498 4 1 141.232 
42501 4 0.5 142.098 
42502 4 1.5 142.098 
42506 4 1 142.964 
42507 4 2 142.964 
ITEM: TIMESTEP
30000
ITEM: NUMBER OF ATOMS
15
ITEM: BOX BOUNDS ff fm pp
-4.1000000000000000e+01 4.1000000000000000e+01
0.0000000000000000e+00 2.0000000000000000e+02
-2.5000000000000000e-01 2.5000000000000000e-01
ITEM: ATOMS id type x y 
42493 4 -2.00105e-16 138.875 
42494 4 -0.5 139.741 
42496 4 -1 140.607 
42497 4 -1.53359e-16 140.607 
42499 4 -1.5 141.473 
42500 4 -0.5 141.473 
42503 4 -2 142.339 
42504 4 -1 142.339 
42505 4 -1.06613e-16 142.339 
42495 4 0.5 139.741 
42498 4 1 140.607 
42501 4 0.5 141.473 
42502 4 1.5 141.473 
42506 4 1 142.339 
42507 4 2 142.339 
ITEM: TIMESTEP
40000
ITEM: NUMBER OF ATOMS
15
ITEM: BOX BOUNDS ff fm pp
-4.1000000000000000e+01 4.1000000000000000e+01
0.0000000000000000e+00 2.0000000000000000e+02
-2.5000000000000000e-01 2.5000000000000000e-01
ITEM: ATOMS id type x y 
42493 4 -3.57737e-16 138 
42494 4 -0.5 138.866 
42496 4 -1 139.732 
42497 4 -2.73136e-16 139.732 
42499 4 -1.5 140.598 
42500 4 -0.5 140.598 
42503 4 -2 141.464 
42504 4 -1 141.464 
42505 4 -1.88535e-16 141.464 
42495 4 0.5 138.866 
42498 4 1 139.732 
42501 4 0.5 140.598 
42502 4 1.5 140.598 
42506 4 1 141.464 
42507 4 2 141.464 
ITEM: TIMESTEP
50000
ITEM: NUMBER OF ATOMS
15
ITEM: BOX BOUNDS ff fm pp
-4.1000000000000000e+01 4.1000000000000000e+01
0.0000000000000000e+00 2.0000000000000000e+02
-2.5000000000000000e-01 2.5000000000000000e-01
ITEM: ATOMS id type x y 
42493 4 -5.44889e-16 136.875 
42494 4 -0.5 137.741 
42496 4 -1 138.607 
42497 4 -4.23254e-16 138.607 
42499 4 -1.5 139.473 
42500 4 -0.5 139.473 
42503 4 -2 140.339 
42504 4 -1 140.339 
42505 4 -3.01619e-16 140.339 
42495 4 0.5 137.741 
42498 4 1 138.607 
42501 4 0.5 139.473 
42502 4 1.5 139.473 
42506 4 1 140.339 
42507 4 2 140.339 
ITEM: TIMESTEP
60000
ITEM: NUMBER OF ATOMS
15
ITEM: BOX BOUNDS ff fm pp
-4.1000000000000000e+01 4.1000000000000000e+01
0.0000000000000000e+00 2.0000000000000000e+02
-2.5000000000000000e-01 2.5000000000000000e-01
ITEM: ATOMS id type x y 
42493 4 -7.59941e-16 135.5 
42494 4 -0.5 136.366 
42496 4 -1 137.232 
42497 4 -6.03309e-16 137.232 
42499 4 -1.5 138.098 
42500 4 -0.5 138.098 
42503 4 -2 138.964 
42504 4 -1 138.964 
42505 4 -4.46676e-16 138.964 
42495 4 0.5 136.366 
42498 4 1 137.232 
42501 4 0.5 138.098 
42502 4 1.5 138.098 
42506 4 1 138.964 
42507 4 2 138.964 
ITEM: TIMESTEP
70000
ITEM: NUMBER OF ATOMS
15
ITEM: BOX BOUNDS ff fm pp
-4.1000000000000000e+01 4.1000000000000000e+01
0.0000000000000000e+00 2.0000000000000000e+02
-2.5000000000000000e-01 2.5000000000000000e-01
ITEM: ATOMS id type x y 
42493 4 -9.88952e-16 133.875 
42494 4 -0.5 134.741 
42496 4 -1 135.607 
42497 4 -8.09814e-16 135.607 
42499 4 -1.5 136.473 
42500 4 -0.5 136.473 
42503 4 -2 137.339 
42504 4 -1 137.339 
42505 4 -6.30677e-16 137.339 
42495 4 0.5 134.741 
42498 4 1 135.607 
42501 4 0.5 136.473 
42502 4 1.5 136.473 
42506 4 1 137.339 
42507 4 2 137.339 
ITEM: TIMESTEP
80000
ITEM: NUMBER OF ATOMS
15
ITEM: BOX BOUNDS ff fm pp
-4.1000000000000000e+01 4.1000000000000000e+01
0.0000000000000000e+00 2.0000000000000000e+02
-2.5000000000000000e-01 2.5000000000000000e-01
ITEM: ATOMS id type x y 
42493 4 -1.24831e-15 132 
42494 4 -0.5 132.866 
42496 4 -1 133.732 
42497 4 -1.04687e-15 133.732 
42499 4 -1.5 134.598 
42500 4 -0.5 134.598 
42503 4 -2 135.464 
42504 4 -1 135.464 
42505 4 -8.45427e-16 135.464 
42495 4 0.5 132.866 
42498 4 1 133.732 
42501 4 0.5 134.598 
42502 4 1.5 134.598 
42506 4 1 135.464 
42507 4 2 135.464 
ITEM: TIMESTEP
90000
ITEM: NUMBER OF ATOMS
15
ITEM: BOX BOUNDS ff fm pp
-4.1000000000000000e+01 4.1000000000000000e+01
0.0000000000000000e+00 2.0000000000000000e+02
-2.5000000000000000e-01 2.5000000000000000e-01
ITEM: ATOMS id type x y 
42493 4 -1.54589e-15 129.875 
42494 4 -0.5 130.741 
42496 4 -1 131.607 
42497 4 -1.31644e-15 131.607 
42499 4 -1.5 132.473 
42500 4 -0.5 132.473 
42503 4 -2 133.339 
42504 4 -1 133.339 
42505 4 -1.08699e-15 133.339 
42495 4 0.5 130.741 
42498 4 1 131.607 
42501 4 0.5 132.473 
42502 4 1.5 132.473 
42506 4 1 133.339 
42507 4 2 133.339 
ITEM: TIMESTEP
100000
ITEM: NUMBER OF ATOMS
15
ITEM: BOX BOUNDS ff fm pp
-4.1000000000000000e+01 4.1000000000000000e+01
0.0000000000000000e+00 2.0000000000000000e+02
-2.5000000000000000e-01 2.5000000000000000e-01
ITEM: ATOMS id type x y 
42493 4 -1.85321e-15 127.5 
42494 4 -0.5 128.366 
42496 4 -1 129.232 
42497 4 -1.6114e-15 129.232 
42499 4 -1.5 130.098 
42500 4 -0.5 130.098 
42503 4 -2 130.964 
42504 4 -1 130.964 
42505 4 -1.3696e-15 130.964 
42495 4 0.5 128.366 
42498 4 1 129.232 
42501 4 0.5 130.098 
42502 4 1.5 130.098 
42506 4 1 130.964 
42507 4 2 130.964 
ITEM: TIMESTEP
110000
ITEM: NUMBER OF ATOMS
15
ITEM: BOX BOUNDS ff fm pp
-4.1000000000000000e+01 4.1000000000000000e+01
0.0000000000000000e+00 2.0000000000000000e+02
-2.5000000000000000e-01 2.5000000000000000e-01
ITEM: ATOMS id type x y 
42493 4 -2.14438e-15 124.875 
42494 4 -0.5 125.741 
42496 4 -1 126.607 
42497 4 -1.92529e-15 126.607 
42499 4 -1.5 127.473 
42500 4 -0.5 127.473 
42503 4 -2 128.339 
42504 4 -1 128.339 
42505 4 -1.70621e-15 128.339 
42495 4 0.5 125.741 
42498 4 1 126.607 
42501 4 0.5 127.473 
42502 4 1.5 127.473 
42506 4 1 128.339 
42507 4 2 128.339 
ITEM: TIMESTEP
120000
ITEM: NUMBER OF ATOMS
15
ITEM: BOX BOUNDS ff fm pp
-4.1000000000000000e+01 4.1000000000000000e+01
0.0000000000000000e+00 2.0000000000000000e+02
-2.5000000000000000e-01 2.5000000000000000e-01
ITEM: ATOMS id type x y 
42493 4 -2.46734e-15 122 
42494 4 -0.5 122.866 
42496 4 -1 123.732 
42497 4 -2.27009e-15 123.732 
42499 4 -1.5 124.598 
42500 4 -0.5 124.598 
42503 4 -2 125.464 
42504 4 -1 125.464 
42505 4 -2.07285e-15 125.464 
42495 4 0.5 122.866 
42498 4 1 123.732 
42501 4 0.5 124.598 
42502 4 1.5 124.598 
42506 4 1 125.464 
42507 4 2 125.464 
ITEM: TIMESTEP
130000
ITEM: NUMBER OF ATOMS
15
ITEM: BOX BOUNDS ff fm pp
-4.1000000000000000e+01 4.1000000000000000e+01
0.0000000000000000e+00 2.0000000000000000e+02
-2.5000000000000000e-01 2.5000000000000000e-01
ITEM: ATOMS id type x y 
42504 4 -0.999951 122.348 
42494 4 -0.496826 119.75 
42496 4 -0.997867 120.616 
42499 4 -1.49891 121.481 
42500 4 -0.498909 121.482 
42503 4 -1.99995 122.347 
42493 4 0.00421535 118.885 
42495 4 0.503173 119.752 
42497 4 0.00213206 120.617 
42498 4 1.00213 120.618 
42501 4 0.50109 121.484 
42502 4 1.50109 121.485 
42506 4 1.00005 122.35 
42507 4 2.00005 122.351 
42505 4 4.8759e-05 122.349 
ITEM: TIMESTEP
140000
ITEM: NUMBER OF ATOMS
15
ITEM: BOX BOUNDS ff fm pp
-4.1000000000000000e+01 4.1000000000000000e+01
0.0000000000000000e+00 2.0000000000000000e+02
-2.5000000000000000e-01 2.5000000000000000e-01
ITEM: ATOMS id type x y 
42494 4 -0.494918 116.499 
42496 4 -0.997739 117.363 
42499 4 -1.50056 118.228 
42500 4 -0.500564 118.231 
42503 4 -2.00338 119.092 
42504 4 -1.00338 119.095 
42505 4 -0.00339007 119.099 
42493 4 0.00790219 115.635 
42495 4 0.505076 116.502 
42497 4 0.00225606 117.367 
42498 4 1.00225 117.37 
42501 4 0.49943 118.234 
42502 4 1.49943 118.238 
42506 4 0.996605 119.102 
42507 4 1.9966 119.105 
ITEM: TIMESTEP
150000
ITEM: NUMBER OF ATOMS
15
ITEM: BOX BOUNDS ff fm pp
-4.1000000000000000e+01 4.1000000000000000e+01
0.0000000000000000e+00 2.0000000000000000e+02
-2.5000000000000000e-01 2.5000000000000000e-01
ITEM: ATOMS id type x y 
42494 4 -0.465032 113.376 
42496 4 -0.970682 114.239 
42499 4 -1.47633 115.102 
42500 4 -0.476354 115.108 
42503 4 -1.98198 115.964 
42504 4 -0.982005 115.971 
42493 4 0.0406191 112.514 
42495 4 0.534947 113.383 
42497 4 0.0292963 114.245 
42498 4 1.02927 114.252 
42501 4 0.523624 115.115 
42502 4 1.5236 115.121 
42505 4 0.0179735 115.977 
42506 4 1.01795 115.984 
42507 4 2.01793 115.991 
ITEM: TIMESTEP
160000
ITEM: NUMBER OF ATOMS
15
ITEM: BOX BOUNDS ff fm pp
-4.1000000000000000e+01 4.1000000000000000e+01
0.0000000000000000e+00 2.0000000000000000e+02
-2.5000000000000000e-01 2.5000000000000000e-01
ITEM: ATOMS id type x y 
42494 4 -0.442279 110.477 
42496 4 -0.935474 111.347 
42499 4 -1.42867 112.217 
42500 4 -0.428699 112.209 
42503 4 -1.92186 113.087 
42504 4 -0.921894 113.079 
42493 4 0.0509151 109.607 
42495 4 0.55769 110.469 
42497 4 0.0644953 111.339 
42498 4 1.06446 111.331 
42501 4 0.57127 112.201 
42502 4 1.57124 112.193 
42505 4 0.0780755 113.071 
42506 4 1.07804 113.063 
42507 4 2.07801 113.055 
ITEM: TIMESTEP
170000
ITEM: NUMBER OF ATOMS
15
ITEM: BOX BOUNDS ff fm pp
-4.1000000000000000e+01 4.1000000000000000e+01
0.0000000000000000e+00 2.0000000000000000e+02
-2.5000000000000000e-01 2.5000000000000000e-01
ITEM: ATOMS id type x y 
42493 4 -0.0422583 106.979 
42494 4 -0.499115 107.869 
42496 4 -0.955971 108.758 
42499 4 -1.41283 109.648 
42500 4 -0.414035 109.599 
42503 4 -1.86968 110.537 
42504 4 -0.870891 110.488 
42495 4 0.499678 107.82 
42497 4 0.0428216 108.709 
42498 4 1.04161 108.66 
42501 4 0.584758 109.55 
42502 4 1.58355 109.5 
42505 4 0.127901 110.439 
42506 4 1.12669 110.39 
42507 4 2.12549 110.341 
ITEM: TIMESTEP
180000
ITEM: NUMBER OF ATOMS
15
ITEM: BOX BOUNDS ff fm pp
-4.1000000000000000e+01 4.1000000000000000e+01
0.0000000000000000e+00 2.0000000000000000e+02
-2.5000000000000000e-01 2.5000000000000000e-01
ITEM: ATOMS id type x y 
42493 4 -0.116171 104.508 
42494 4 -0.550919 105.409 
42496 4 -0.985667 106.309 
42499 4 -1.42042 107.21 
42500 4 -0.423141 107.136 
42503 4 -1.85516 108.11 
42504 4 -0.857889 108.036 
42495 4 0.446356 105.335 
42497 4 0.0116077 106.235 
42498 4 1.00888 106.162 
42501 4 0.574134 107.062 
42502 4 1.57141 106.988 
42507 4 2.13394 107.815 
42505 4 0.139386 107.963 
42506 4 1.13666 107.889 
ITEM: TIMESTEP
190000
ITEM: NUMBER OF ATOMS
15
ITEM: BOX BOUNDS ff fm pp
-4.1000000000000000e+01 4.1000000000000000e+01
0.0000000000000000e+00 2.0000000000000000e+02
-2.5000000000000000e-01 2.5000000000000000e-01
ITEM: ATOMS id type x y 
42493 4 -0.188284 102.128 
42494 4 -0.606447 103.037 
42496 4 -1.02461 103.945 
42497 4 -0.0288558 103.853 
42499 4 -1.44277 104.853 
42500 4 -0.447019 104.761 
42503 4 -1.86094 105.762 
42504 4 -0.865182 105.67 
42495 4 0.389307 102.945 
42498 4 0.966899 103.761 
42501 4 0.548735 104.669 
42502 4 1.54449 104.577 
42506 4 1.12633 105.485 
42507 4 2.12208 105.393 
42505 4 0.130572 105.577 
ITEM: TIMESTEP
200000
ITEM: NUMBER OF ATOMS
15
ITEM: BOX BOUNDS ff fm pp
-4.1000000000000000e+01 4.1000000000000000e+01
0.0000000000000000e+00 2.0000000000000000e+02
-2.5000000000000000e-01 2.5000000000000000e-01
ITEM: ATOMS id type x y 
42493 4 -0.293013 99.7811 
42494 4 -0.687895 100.7 
42496 4 -1.08278 101.619 
42497 4 -0.0896923 101.501 
42500 4 -0.484575 102.42 
42499 4 -1.47766 102.537 
42503 4 -1.87254 103.456 
42504 4 -0.879458 103.339 
42495 4 0.30519 100.582 
42498 4 0.903394 101.384 
42501 4 0.508511 102.302 
42502 4 1.5016 102.185 
42507 4 2.0998 102.986 
42505 4 0.113628 103.221 
42506 4 1.10671 103.104 
ITEM: TIMESTEP
210000
ITEM: NUMBER OF ATOMS
15
ITEM: BOX BOUNDS ff fm pp
-4.1000000000000000e+01 4.1000000000000000e+01
0.0000000000000000e+00 2.0000000000000000e+02
-2.5000000000000000e-01 2.5000000000000000e-01
ITEM: ATOMS id type x y 
42493 4 -0.478839 97.4741 
42494 4 -0.834359 98.4087 
42496 4 -1.18988 99.3434 
42497 4 -0.202672 99.1839 
42499 4 -1.5454 100.278 
42500 4 -0.558192 100.119 
42503 4 -1.90092 101.213 
42504 4 -0.913712 101.053 
42495 4 0.152847 98.2493 
42498 4 0.784534 99.0245 
42501 4 0.429014 99.9591 
42502 4 1.41622 99.7997 
42507 4 2.04791 100.575 
42505 4 0.0734939 100.894 
42506 4 1.0607 100.734 
ITEM: TIMESTEP
220000
ITEM: NUMBER OF ATOMS
15
ITEM: BOX BOUNDS ff fm pp
-4.1000000000000000e+01 4.1000000000000000e+01
0.0000000000000000e+00 2.0000000000000000e+02
-2.5000000000000000e-01 2.5000000000000000e-01
ITEM: ATOMS id type x y 
42493 4 -0.681563 95.1909 
42494 4 -1.00352 96.1377 
42495 4 -0.0226281 95.9431 
42496 4 -1.32547 97.0844 
42497 4 -0.344584 96.8898 
42499 4 -1.64743 98.0311 
42500 4 -0.666539 97.8366 
42504 4 -0.988495 98.7833 
42503 4 -1.96939 98.9779 
42505 4 -0.00760465 98.5887 
42498 4 0.636307 96.6953 
42501 4 0.314351 97.642 
42502 4 1.29524 97.4475 
42507 4 1.95418 98.1996 
42506 4 0.973286 98.3942 
ITEM: TIMESTEP
230000
ITEM: NUMBER OF ATOMS
15
ITEM: BOX BOUNDS ff fm pp
-4.1000000000000000e+01 4.1000000000000000e+01
0.0000000000000000e+00 2.0000000000000000e+02
-2.5000000000000000e-01 2.5000000000000000e-01
ITEM: ATOMS id type x y 
42493 4 -0.900723 92.883 
42494 4 -1.18468 93.8418 
42495 4 -0.212328 93.6083 
42497 4 -0.496288 94.5671 
42496 4 -1.46864 94.8006 
42499 4 -1.7526 95.7594 
42500 4 -0.780248 95.5259 
42504 4 -1.06421 96.4847 
42505 4 -0.0918536 96.2512 
42503 4 -2.03656 96.7183 
42498 4 0.476067 94.3336 
42501 4 0.192107 95.2924 
42502 4 1.16446 95.0589 
42507 4 1.85286 95.7842 
42506 4 0.880501 96.0177 
ITEM: TIMESTEP
240000
ITEM: NUMBER OF ATOMS
15
ITEM: BOX BOUNDS ff fm pp
-4.1000000000000000e+01 4.1000000000000000e+01
0.0000000000000000e+00 2.0000000000000000e+02
-2.5000000000000000e-01 2.5000000000000000e-01
ITEM: ATOMS id type x y 
42493 4 -1.16739 90.5093 
42494 4 -1.40007 91.4818 
42495 4 -0.441475 91.197 
42497 4 -0.674155 92.1696 
42496 4 -1.63275 92.4544 
42499 4 -1.86543 93.4269 
42500 4 -0.906835 93.1421 
42505 4 -0.180921 93.8299 
42503 4 -2.09811 94.3994 
42504 4 -1.13951 94.1146 
42498 4 0.284439 91.8848 
42502 4 1.01035 92.5726 
42501 4 0.0517591 92.8573 
42507 4 1.73627 93.2603 
42506 4 0.777673 93.5451 
ITEM: TIMESTEP
250000
ITEM: NUMBER OF ATOMS
15
ITEM: BOX BOUNDS ff fm pp
-4.1000000000000000e+01 4.1000000000000000e+01
0.0000000000000000e+00 2.0000000000000000e+02
-2.5000000000000000e-01 2.5000000000000000e-01
ITEM: ATOMS id type x y 
42493 4 -1.43121 88.0692 
42494 4 -1.6203 89.0511 
42495 4 -0.675358 88.7239 
42497 4 -0.864455 89.7058 
42496 4 -1.8094 90.0331 
42501 4 -0.108605 90.3606 
42499 4 -1.9985 91.015 
42500 4 -1.05355 90.6878 
42504 4 -1.24265 91.6697 
42505 4 -0.297701 91.3425 
42503 4 -2.18759 91.9969 
42498 4 0.0804917 89.3786 
42502 4 0.836342 90.0333 
42506 4 0.647245 91.0153 
42507 4 1.59219 90.688 
ITEM: TIMESTEP
260000
ITEM: NUMBER OF ATOMS
15
ITEM: BOX BOUNDS ff fm pp
-4.1000000000000000e+01 4.1000000000000000e+01
0.0000000000000000e+00 2.0000000000000000e+02
-2.5000000000000000e-01 2.5000000000000000e-01
ITEM: ATOMS id type x y 
42493 4 -1.70585 85.5339 
42495 4 -0.922523 86.1555 
42494 4 -1.85251 86.5231 
42498 4 -0.139197 86.7771 
42497 4 -1.06918 87.1447 
42496 4 -1.99917 87.5123 
42501 4 -0.285858 87.7663 
42499 4 -2.14583 88.5014 
42500 4 -1.21585 88.1338 
42504 4 -1.36251 89.123 
42505 4 -0.43252 88.7554 
42503 4 -2.2925 89.4906 
42502 4 0.64413 87.3987 
42507 4 1.42746 88.0202 
42506 4 0.497468 88.3878 
ITEM: TIMESTEP
270000
ITEM: NUMBER OF ATOMS
15
ITEM: BOX BOUNDS ff fm pp
-4.1000000000000000e+01 4.1000000000000000e+01
0.0000000000000000e+00 2.0000000000000000e+02
-2.5000000000000000e-01 2.5000000000000000e-01
ITEM: ATOMS id type x y 
42493 4 -2.03464 82.9457 
42495 4 -1.2187 83.5238 
42494 4 -2.12734 83.9414 
42498 4 -0.402759 84.1019 
42496 4 -2.22005 84.9371 
42497 4 -1.3114 84.5195 
42500 4 -1.40411 85.5152 
42501 4 -0.495464 85.0976 
42499 4 -2.31275 85.9328 
42505 4 -0.588169 86.0933 
42504 4 -1.49681 86.5109 
42503 4 -2.40546 86.9284 
42502 4 0.41318 84.68 
42507 4 1.22912 85.2581 
42506 4 0.320475 85.6757 
ITEM: TIMESTEP
280000
ITEM: NUMBER OF ATOMS
15
ITEM: BOX BOUNDS ff fm pp
-4.1000000000000000e+01 4.1000000000000000e+01
0.0000000000000000e+00 2.0000000000000000e+02
-2.5000000000000000e-01 2.5000000000000000e-01
ITEM: ATOMS id type x y 
42493 4 -2.38201 80.2471 
42495 4 -1.53462 80.778 
42494 4 -2.41814 81.2464 
42498 4 -0.687229 81.309 
42497 4 -1.57075 81.7773 
42496 4 -2.45427 82.2457 
42501 4 -0.723359 82.3083 
42500 4 -1.60688 82.7767 
42499 4 -2.4904 83.2451 
42504 4 -1.64301 83.776 
42505 4 -0.759489 83.3076 
42503 4 -2.52653 84.2444 
42502 4 0.160161 81.8399 
42507 4 1.00755 82.3708 
42506 4 0.12403 82.8392 
ITEM: TIMESTEP
290000
ITEM: NUMBER OF ATOMS
15
ITEM: BOX BOUNDS ff fm pp
-4.1000000000000000e+01 4.1000000000000000e+01
0.0000000000000000e+00 2.0000000000000000e+02
-2.5000000000000000e-01 2.5000000000000000e-01
ITEM: ATOMS id type x y 
42493 4 -2.74338 77.4485 
42495 4 -1.86702 77.9301 
42494 4 -2.72232 78.4483 
42497 4 -1.84596 78.9299 
42498 4 -0.990664 78.4117 
42502 4 -0.114303 78.8934 
42496 4 -2.70125 79.448 
42501 4 -0.969595 79.4115 
42500 4 -1.82489 79.9296 
42506 4 -0.0932346 79.8931 
42499 4 -2.68018 80.4478 
42505 4 -0.948527 80.4113 
42504 4 -1.80382 80.9294 
42503 4 -2.65911 81.4475 
42507 4 0.762058 79.375 
ITEM: TIMESTEP
300000
ITEM: NUMBER OF ATOMS
15
ITEM: BOX BOUNDS ff fm pp
-4.1000000000000000e+01 4.1000000000000000e+01
0.0000000000000000e+00 2.0000000000000000e+02
-2.5000000000000000e-01 2.5000000000000000e-01
ITEM: ATOMS id type x y 
42493 4 -3.13566 74.5355 
42495 4 -2.22867 74.9566 
42498 4 -1.32167 75.3777 
42494 4 -3.04686 75.5315 
42497 4 -2.13986 75.9526 
42502 4 -0.414671 75.7988 
42496 4 -2.95806 76.5276 
42501 4 -1.23286 76.3737 
42500 4 -2.05106 76.9487 
42506 4 -0.325868 76.7948 
42499 4 -2.86925 77.5236 
42505 4 -1.14406 77.3697 
42504 4 -1.96226 77.9447 
42503 4 -2.78045 78.5196 
42507 4 0.492326 76.2199 
ITEM: TIMESTEP
310000
ITEM: NUMBER OF ATOMS
15
ITEM: BOX BOUNDS ff fm pp
-4.1000000000000000e+01 4.1000000000000000e+01
0.0000000000000000e+00 2.0000000000000000e+02
-2.5000000000000000e-01 2.5000000000000000e-01
ITEM: ATOMS id type x y 
42493 4 -3.53211 71.5183 
42495 4 -2.59939 71.8788 
42498 4 -1.66667 72.2394 
42494 4 -3.37801 72.5063 
42497 4 -2.44528 72.8669 
42502 4 -0.733942 72.5999 
42496 4 -3.2239 73.4944 
42501 4 -1.51256 73.2274 
42500 4 -2.29117 73.8549 
42506 4 -0.579834 73.5879 
42499 4 -3.06979 74.4824 
42505 4 -1.35845 74.2154 
42504 4 -2.13706 74.8429 
42503 4 -2.91568 75.4704 
42507 4 0.198782 72.9604 
ITEM: TIMESTEP
320000
ITEM: NUMBER OF ATOMS
15
ITEM: BOX BOUNDS ff fm pp
-4.1000000000000000e+01 4.1000000000000000e+01
0.0000000000000000e+00 2.0000000000000000e+02
-2.5000000000000000e-01 2.5000000000000000e-01
ITEM: ATOMS id type x y 
42493 4 -3.98065 68.449 
42495 4 -3.0217 68.7325 
42498 4 -2.06275 69.016 
42502 4 -1.1038 69.2995 
42494 4 -3.74672 69.4212 
42497 4 -2.78777 69.7047 
42507 4 -0.144856 69.583 
42496 4 -3.51279 70.3934 
42501 4 -1.82883 69.9882 
42506 4 -0.869878 70.2717 
42500 4 -2.55385 70.6769 
42505 4 -1.5949 70.9604 
42499 4 -3.27887 71.3656 
42504 4 -2.31992 71.6492 
42503 4 -3.04494 72.3379 
ITEM: TIMESTEP
330000
ITEM: NUMBER OF ATOMS
15
ITEM: BOX BOUNDS ff fm pp
-4.1000000000000000e+01 4.1000000000000000e+01
0.0000000000000000e+00 2.0000000000000000e+02
-2.5000000000000000e-01 2.5000000000000000e-01
ITEM: ATOMS id type x y 
42507 4 -0.540012 66.1046 
42502 4 -1.52198 65.9156 
42493 4 -4.46788 65.3488 
42495 4 -3.48591 65.5377 
42498 4 -2.50395 65.7267 
42494 4 -4.14054 66.2937 
42497 4 -3.15858 66.4826 
42501 4 -2.17661 66.6716 
42506 4 -1.19464 66.8605 
42496 4 -3.81321 67.2386 
42500 4 -2.83124 67.4275 
42505 4 -1.84927 67.6165 
42499 4 -3.48587 68.1835 
42504 4 -2.50391 68.3724 
42503 4 -3.15854 69.1284 
ITEM: TIMESTEP
340000
ITEM: NUMBER OF ATOMS
15
ITEM: BOX BOUNDS ff fm pp
-4.1000000000000000e+01 4.1000000000000000e+01
0.0000000000000000e+00 2.0000000000000000e+02
-2.5000000000000000e-01 2.5000000000000000e-01
ITEM: ATOMS id type x y 
42503 4 -3.26636 65.8175 
42493 4 -4.97228 62.1996 
42495 4 -3.97575 62.2825 
42498 4 -2.97921 62.3654 
42502 4 -1.98267 62.4482 
42507 4 -0.986131 62.5311 
42494 4 -4.5458 63.1041 
42497 4 -3.54926 63.187 
42501 4 -2.55273 63.2698 
42506 4 -1.55619 63.3527 
42496 4 -4.11932 64.0086 
42500 4 -3.12278 64.0914 
42505 4 -2.12624 64.1743 
42499 4 -3.69284 64.913 
42504 4 -2.6963 64.9959 
ITEM: TIMESTEP
350000
ITEM: NUMBER OF ATOMS
15
ITEM: BOX BOUNDS ff fm pp
-4.1000000000000000e+01 4.1000000000000000e+01
0.0000000000000000e+00 2.0000000000000000e+02
-2.5000000000000000e-01 2.5000000000000000e-01
ITEM: ATOMS id type x y 
42493 4 -5.45441 58.948 
42495 4 -4.45465 58.9271 
42498 4 -3.45489 58.9063 
42502 4 -2.45513 58.8854 
42507 4 -1.45537 58.8645 
42494 4 -4.93647 59.8034 
42497 4 -3.93671 59.7825 
42501 4 -2.93695 59.7617 
42506 4 -1.93719 59.7408 
42496 4 -4.41853 60.6588 
42500 4 -3.41877 60.6379 
42505 4 -2.41901 60.617 
42499 4 -3.90058 61.5142 
42504 4 -2.90082 61.4933 
42503 4 -3.38264 62.3696 
ITEM: TIMESTEP
360000
ITEM: NUMBER OF ATOMS
15
ITEM: BOX BOUNDS ff fm pp
-4.1000000000000000e+01 4.1000000000000000e+01
0.0000000000000000e+00 2.0051200744064562e+02
-2.5000000000000000e-01 2.5000000000000000e-01
ITEM: ATOMS id type x y 
42493 4 -5.90257 55.591 
42495 4 -4.9095 55.4736 
42498 4 -3.91643 55.3563 
42502 4 -2.92336 55.239 
42507 4 -1.93029 55.1216 
42497 4 -4.31136 56.275 
42501 4 -3.31829 56.1577 
42506 4 -2.32522 56.0403 
42494 4 -5.30443 56.3924 
42496 4 -4.70629 57.1937 
42500 4 -3.71322 57.0764 
42505 4 -2.72015 56.959 
42499 4 -4.10816 57.9951 
42504 4 -3.11509 57.8777 
42503 4 -3.51002 58.7965 
ITEM: TIMESTEP
370000
ITEM: NUMBER OF ATOMS
15
ITEM: BOX BOUNDS ff fm pp
-4.1000000000000000e+01 4.1000000000000000e+01
0.0000000000000000e+00 2.0101914256289209e+02
-2.5000000000000000e-01 2.5000000000000000e-01
ITEM: ATOMS id type x y 
42502 4 -3.39956 51.5053 
42507 4 -2.42294 51.2904 
42493 4 -6.32943 52.1499 
42495 4 -5.35281 51.935 
42498 4 -4.37618 51.7201 
42497 4 -4.67844 52.6734 
42501 4 -3.70182 52.4585 
42506 4 -2.7252 52.2437 
42494 4 -5.65506 52.8882 
42505 4 -3.02745 53.1969 
42496 4 -4.9807 53.6266 
42500 4 -4.00408 53.4117 
42499 4 -4.30633 54.365 
42504 4 -3.32971 54.1501 
42503 4 -3.63197 55.1033 
ITEM: TIMESTEP
380000
ITEM: NUMBER OF ATOMS
15
ITEM: BOX BOUNDS ff fm pp
-4.1000000000000000e+01 4.1000000000000000e+01
0.0000000000000000e+00 2.0128162966956086e+02
-2.5000000000000000e-01 2.5000000000000000e-01
ITEM: ATOMS id type x y 
42507 4 -2.89463 47.3959 
42498 4 -4.801 48.0005 
42502 4 -3.84781 47.6982 
42493 4 -6.70738 48.6051 
42495 4 -5.75419 48.3028 
42506 4 -3.10943 48.3725 
42497 4 -5.01581 48.9772 
42501 4 -4.06262 48.6749 
42494 4 -5.96899 49.2795 
42500 4 -4.27743 49.6515 
42505 4 -3.32424 49.3492 
42496 4 -5.23061 49.9538 
42504 4 -3.53904 50.3259 
42499 4 -4.49223 50.6282 
42503 4 -3.75385 51.3025 
ITEM: TIMESTEP
390000
ITEM: NUMBER OF ATOMS
15
ITEM: BOX BOUNDS ff fm pp
-4.1000000000000000e+01 4.1000000000000000e+01
0.0000000000000000e+00 2.0129083946787219e+02
-2.5000000000000000e-01 2.5000000000000000e-01
ITEM: ATOMS id type x y 
42507 4 -3.32762 43.4388 
42498 4 -5.18075 44.191 
42502 4 -4.25418 43.8149 
42493 4 -7.03387 44.9432 
42495 4 -6.10731 44.5671 
42501 4 -4.39178 44.8054 
42506 4 -3.46522 44.4293 
42494 4 -6.24491 45.5576 
42497 4 -5.31835 45.1815 
42505 4 -3.60282 45.4198 
42496 4 -5.45595 46.172 
42500 4 -4.52939 45.7959 
42499 4 -4.66699 46.7864 
42504 4 -3.74042 46.4103 
42503 4 -3.87803 47.4008 
ITEM: TIMESTEP
400000
ITEM: NUMBER OF ATOMS
15
ITEM: BOX BOUNDS ff fm pp
-4.1000000000000000e+01 4.1000000000000000e+01
0.0000000000000000e+00 2.0104982978455325e+02
-2.5000000000000000e-01 2.5000000000000000e-01
ITEM: ATOMS id type x y 
42507 4 -3.70754 39.4176 
42502 4 -4.60952 39.8493 
42495 4 -6.41346 40.7128 
42498 4 -5.51149 40.2811 
42506 4 -3.78464 40.4146 
42493 4 -7.31543 41.1446 
42497 4 -5.58858 41.2781 
42501 4 -4.68661 40.8464 
42494 4 -6.49055 41.7099 
42500 4 -4.76371 41.8434 
42505 4 -3.86173 41.4116 
42496 4 -5.66568 42.2751 
42504 4 -3.93883 42.4087 
42499 4 -4.8408 42.8404 
42503 4 -4.01592 43.4057 
ITEM: TIMESTEP
410000
ITEM: NUMBER OF ATOMS
15
ITEM: BOX BOUNDS ff fm pp
-4.1000000000000000e+01 4.1000000000000000e+01
0.0000000000000000e+00 2.0055691270786426e+02
-2.5000000000000000e-01 2.5000000000000000e-01
ITEM: ATOMS id type x y 
42507 4 -4.03896 35.3378 
42498 4 -5.79716 36.2909 
42502 4 -4.91806 35.8144 
42506 4 -4.06578 36.3374 
42495 4 -6.67626 36.7675 
42501 4 -4.94488 36.814 
42493 4 -7.55536 37.2441 
42497 4 -5.82398 37.2906 
42505 4 -4.0926 37.337 
42494 4 -6.70308 37.7672 
42500 4 -4.9717 37.8136 
42496 4 -5.8508 38.2902 
42504 4 -4.11942 38.3367 
42499 4 -4.99852 38.8133 
42503 4 -4.14624 39.3363 
ITEM: TIMESTEP
420000
ITEM: NUMBER OF ATOMS
15
ITEM: BOX BOUNDS ff fm pp
-4.1000000000000000e+01 4.1000000000000000e+01
0.0000000000000000e+00 2.0000000000000000e+02
-2.5000000000000000e-01 2.5000000000000000e-01
ITEM: ATOMS id type x y 
42507 4 -4.3023 31.2109 
42502 4 -5.16147 31.7225 
42498 4 -6.02065 32.2341 
42506 4 -4.2888 32.2108 
42493 4 -7.739 33.2574 
42495 4 -6.87982 32.7458 
42497 4 -6.00715 33.234 
42501 4 -5.14798 32.7224 
42505 4 -4.27531 33.2107 
42494 4 -6.86633 33.7457 
42500 4 -5.13449 33.7223 
42496 4 -5.99366 34.234 
42504 4 -4.26182 34.2106 
42499 4 -5.12099 34.7222 
42503 4 -4.24833 35.2105 
ITEM: TIMESTEP
430000
ITEM: NUMBER OF ATOMS
15
ITEM: BOX BOUNDS ff fm pp
-4.1000000000000000e+01 4.1000000000000000e+01
0.0000000000000000e+00 2.0000000000000000e+02
-2.5000000000000000e-01 2.5000000000000000e-01
ITEM: ATOMS id type x y 
42507 4 -4.5157 27.0526 
42502 4 -5.35697 27.5932 
42498 4 -6.19824 28.1337 
42506 4 -4.4682 28.0515 
42495 4 -7.03951 28.6743 
42501 4 -5.30947 28.592 
42505 4 -4.4207 29.0503 
42493 4 -7.88079 29.2149 
42497 4 -6.15074 29.1326 
42500 4 -5.26197 29.5909 
42494 4 -6.99201 29.6732 
42496 4 -6.10324 30.1315 
42504 4 -4.37319 30.0492 
42499 4 -5.21447 30.5898 
42503 4 -4.32569 31.0481 
ITEM: TIMESTEP
440000
ITEM: NUMBER OF ATOMS
15
ITEM: BOX BOUNDS ff fm pp
-4.1000000000000000e+01 4.1000000000000000e+01
0.0000000000000000e+00 2.0000000000000000e+02
-2.5000000000000000e-01 2.5000000000000000e-01
ITEM: ATOMS id type x y 
42507 4 -4.64516 22.8856 
42502 4 -5.47594 23.4422 
42498 4 -6.30672 23.9987 
42506 4 -4.57857 23.8834 
42495 4 -7.1375 24.5553 
42501 4 -5.40935 24.44 
42493 4 -7.96828 25.1119 
42497 4 -6.24012 24.9965 
42505 4 -4.51197 24.8812 
42494 4 -7.0709 25.5531 
42496 4 -6.17353 25.9943 
42500 4 -5.34275 25.4377 
42504 4 -4.44537 25.879 
42499 4 -5.27615 26.4355 
42503 4 -4.37877 26.8767 
ITEM: TIMESTEP
450000
ITEM: NUMBER OF ATOMS
15
ITEM: BOX BOUNDS ff fm pp
-4.1000000000000000e+01 4.1000000000000000e+01
0.0000000000000000e+00 2.0000000000000000e+02
-2.5000000000000000e-01 2.5000000000000000e-01
ITEM: ATOMS id type x y 
42507 4 -4.68906 18.7474 
42502 4 -5.51218 19.3152 
42498 4 -6.33529 19.8831 
42506 4 -4.60886 19.7442 
42495 4 -7.1584 20.4509 
42501 4 -5.43198 20.312 
42493 4 -7.98151 21.0188 
42497 4 -6.25509 20.8799 
42505 4 -4.52867 20.7409 
42494 4 -7.0782 21.4477 
42500 4 -5.35178 21.3088 
42504 4 -4.44847 21.7377 
42496 4 -6.17489 21.8766 
42499 4 -5.27158 22.3056 
42503 4 -4.36827 22.7345 
ITEM: TIMESTEP
460000
ITEM: NUMBER OF ATOMS
15
ITEM: BOX BOUNDS ff fm pp
-4.1000000000000000e+01 4.1000000000000000e+01
0.0000000000000000e+00 2.0000000000000000e+02
-2.5000000000000000e-01 2.5000000000000000e-01
ITEM: ATOMS id type x y 
42507 4 -4.59729 14.7306 
42498 4 -6.25636 15.8475 
42502 4 -5.42682 15.2891 
42506 4 -4.52847 15.7283 
42495 4 -7.0859 16.4059 
42501 4 -5.358 16.2867 
42493 4 -7.91543 16.9643 
42497 4 -6.18754 16.8451 
42505 4 -4.45965 16.7259 
42494 4 -7.01707 17.4035 
42500 4 -5.28918 17.2843 
42496 4 -6.11872 17.8427 
42504 4 -4.39082 17.7235 
42499 4 -5.22036 18.2819 
42503 4 -4.322 18.7212 
ITEM: TIMESTEP
470000
ITEM: NUMBER OF ATOMS
15
ITEM: BOX BOUNDS ff fm pp
-4.1000000000000000e+01 4.1000000000000000e+01
0.0000000000000000e+00 2.0000000000000000e+02
-2.5000000000000000e-01 2.5000000000000000e-01
ITEM: ATOMS id type x y 
42502 4 -5.22525 11.6287 
42507 4 -4.37559 11.1014 
42498 4 -6.07491 12.156 
42506 4 -4.34378 12.1009 
42495 4 -6.92456 12.6833 
42501 4 -5.19344 12.6282 
42493 4 -7.77422 13.2106 
42497 4 -6.0431 13.1555 
42505 4 -4.31197 13.1004 
42494 4 -6.89275 13.6828 
42500 4 -5.16163 13.6277 
42504 4 -4.28016 14.0999 
42496 4 -6.01129 14.155 
42499 4 -5.12982 14.6272 
42503 4 -4.24835 15.0994 
ITEM: TIMESTEP
480000
ITEM: NUMBER OF ATOMS
15
ITEM: BOX BOUNDS ff fm pp
-4.1000000000000000e+01 4.1000000000000000e+01
0.0000000000000000e+00 2.0000000000000000e+02
-2.5000000000000000e-01 2.5000000000000000e-01
ITEM: ATOMS id type x y 
42507 4 -4.26983 8.18449 
42502 4 -5.10846 8.72915 
42498 4 -5.9471 9.2738 
42506 4 -4.21747 9.18312 
42495 4 -6.78573 9.81846 
42501 4 -5.05611 9.72778 
42493 4 -7.62436 10.3631 
42497 4 -5.89474 10.2724 
42505 4 -4.16511 10.1817 
42494 4 -6.73337 10.8171 
42500 4 -5.00375 10.7264 
42504 4 -4.11276 11.1804 
42496 4 -5.84238 11.2711 
42499 4 -4.95139 11.725 
42503 4 -4.0604 12.179 
ITEM: TIMESTEP
490000