ITEM: TIMESTEP
0
ITEM: NUMBER OF ATOMS
15
ITEM: BOX BOUNDS ff fm pp
-4.1000000000000000e+01 4.1000000000000000e+01
0.0000000000000000e+00 2.0000000000000000e+02
-2.5000000000000000e-01 2.5000000000000000e-01
ITEM: ATOMS id type x y 
42508 5 10 140 
42509 5 9.5 140.866 
42510 5 10.5 140.866 
42511 5 9 141.732 
42512 5 10 141.732 
42513 5 11 141.732 
42514 5 8.5 142.598 
42515 5 9.5 142.598 
42516 5 10.5 142.598 
42517 5 11.5 142.598 
42518 5 8 143.464 
42519 5 9 143.464 
42520 5 10 143.464 
42521 5 11 143.464 
42522 5 12 143.464 
ITEM: TIMESTEP
10000
ITEM: NUMBER OF ATOMS
15
ITEM: BOX BOUNDS ff fm pp
-4.1000000000000000e+01 4.1000000000000000e+01
0.0000000000000000e+00 2.0000000000000000e+02
-2.5000000000000000e-01 2.5000000000000000e-01
ITEM: ATOMS id type x y 
42508 5 10 139.875 
42509 5 9.5 140.741 
42510 5 10.5 140.741 
42511 5 9 141.607 
42512 5 10 141.607 
42513 5 11 141.607 
42514 5 8.5 142.473 
42515 5 9.5 142.473 
42516 5 10.5 142.473 
42517 5 11.5 142.473 
42518 5 8 143.339 
42519 5 9 143.339 
42520 5 10 143.339 
42521 5 11 143.339 
42522 5 12 143.339 
ITEM: TIMESTEP
20000
ITEM: NUMBER OF ATOMS
15
ITEM: BOX BOUNDS ff fm pp
-4.1000000000000000e+01 4.1000000000000000e+01
0.0000000000000000e+00 2.0000000000000000e+02
-2.5000000000000000e-01 2.5000000000000000e-01
ITEM: ATOMS id type x y 
42508 5 10 139.5 
42509 5 9.5 140.366 
42510 5 10.5 140.366 
42511 5 9 141.232 
42512 5 10 141.232 
42513 5 11 141.232 
42514 5 8.5 142.098 
42515 5 9.5 142.098 
42516 5 10.5 142.098 
42517 5 11.5 142.098 
42518 5 8 142.964 
42519 5 9 142.964 
42520 5 10 142.964 
42521 5 11 142.964 
42522 5 12 142.964 
ITEM: TIMESTEP
30000
ITEM: NUMBER OF ATOMS
15
ITEM: BOX BOUNDS ff fm pp
-4.1000000000000000e+01 4.1000000000000000e+01
0.0000000000000000e+00 2.0000000000000000e+02
-2.5000000000000000e-01 2.5000000000000000e-01
ITEM: ATOMS id type x y 
42508 5 10 138.875 
42509 5 9.5 139.741 
42510 5 10.5 139.741 
42511 5 9 140.607 
42512 5 10 140.607 
42513 5 11 140.607 
42514 5 8.5 141.473 
42515 5 9.5 141.473 
42516 5 10.5 141.473 
42517 5 11.5 141.473 
42518 5 8 142.339 
42519 5 9 142.339 
42520 5 10 142.339 
42521 5 11 142.339 
42522 5 12 142.339 
ITEM: TIMESTEP
40000
ITEM: NUMBER OF ATOMS
15
ITEM: BOX BOUNDS ff fm pp
-4.1000000000000000e+01 4.1000000000000000e+01
0.0000000000000000e+00 2.0000000000000000e+02
-2.5000000000000000e-01 2.5000000000000000e-01
ITEM: ATOMS id type x y 
42508 5 10 138 
42509 5 9.5 138.866 
42510 5 10.5 138.866 
42511 5 9 139.732 
42512 5 10 139.732 
42513 5 11 139.732 
42514 5 8.5 140.598 
42515 5 9.5 140.598 
42516 5 10.5 140.598 
42517 5 11.5 140.598 
42518 5 8 141.464 
42519 5 9 141.464 
42520 5 10 141.464 
42521 5 11 141.464 
42522 5 12 141.464 
ITEM: TIMESTEP
50000
ITEM: NUMBER OF ATOMS
15
ITEM: BOX BOUNDS ff fm pp
-4.1000000000000000e+01 4.1000000000000000e+01
0.0000000000000000e+00 2.0000000000000000e+02
-2.5000000000000000e-01 2.5000000000000000e-01
ITEM: ATOMS id type x y 
42508 5 10 136.875 
42509 5 9.5 137.741 
42510 5 10.5 137.741 
42511 5 9 138.607 
42512 5 10 138.607 
42513 5 11 138.607 
42514 5 8.5 139.473 
42515 5 9.5 139.473 
42516 5 10.5 139.473 
42517 5 11.5 139.473 
42518 5 8 140.339 
42519 5 9 140.339 
42520 5 10 140.339 
42521 5 11 140.339 
42522 5 12 140.339 
ITEM: TIMESTEP
60000
ITEM: NUMBER OF ATOMS
15
ITEM: BOX BOUNDS ff fm pp
-4.1000000000000000e+01 4.1000000000000000e+01
0.0000000000000000e+00 2.0000000000000000e+02
-2.5000000000000000e-01 2.5000000000000000e-01
ITEM: ATOMS id type x y 
42508 5 10 135.5 
42509 5 9.5 136.366 
42510 5 10.5 136.366 
42511 5 9 137.232 
42512 5 10 137.232 
42513 5 11 137.232 
42514 5 8.5 138.098 
42515 5 9.5 138.098 
42516 5 10.5 138.098 
42517 5 11.5 138.098 
42518 5 8 138.964 
42519 5 9 138.964 
42520 5 10 138.964 
42521 5 11 138.964 
42522 5 12 138.964 
ITEM: TIMESTEP
70000
ITEM: NUMBER OF ATOMS
15
ITEM: BOX BOUNDS ff fm pp
-4.1000000000000000e+01 4.1000000000000000e+01
0.0000000000000000e+00 2.0000000000000000e+02
-2.5000000000000000e-01 2.5000000000000000e-01
ITEM: ATOMS id type x y 
42508 5 10 133.875 
42509 5 9.5 134.741 
42510 5 10.5 134.741 
42511 5 9 135.607 
42512 5 10 135.607 
42513 5 11 135.607 
42514 5 8.5 136.473 
42515 5 9.5 136.473 
42516 5 10.5 136.473 
42517 5 11.5 136.473 
42518 5 8 137.339 
42519 5 9 137.339 
42520 5 10 137.339 
42521 5 11 137.339 
42522 5 12 137.339 
ITEM: TIMESTEP
80000
ITEM: NUMBER OF ATOMS
15
ITEM: BOX BOUNDS ff fm pp
-4.1000000000000000e+01 4.1000000000000000e+01
0.0000000000000000e+00 2.0000000000000000e+02
-2.5000000000000000e-01 2.5000000000000000e-01
ITEM: ATOMS id type x y 
42508 5 10 132 
42509 5 9.5 132.866 
42510 5 10.5 132.866 
42511 5 9 133.732 
42512 5 10 133.732 
42513 5 11 133.732 
42514 5 8.5 134.598 
42515 5 9.5 134.598 
42516 5 10.5 134.598 
42517 5 11.5 134.598 
42518 5 8 135.464 
42519 5 9 135.464 
42520 5 10 135.464 
42521 5 11 135.464 
42522 5 12 135.464 
ITEM: TIMESTEP
90000
ITEM: NUMBER OF ATOMS
15
ITEM: BOX BOUNDS ff fm pp
-4.1000000000000000e+01 4.1000000000000000e+01
0.0000000000000000e+00 2.0000000000000000e+02
-2.5000000000000000e-01 2.5000000000000000e-01
ITEM: ATOMS id type x y 
42508 5 10 129.875 
42509 5 9.5 130.741 
42510 5 10.5 130.741 
42511 5 9 131.607 
42512 5 10 131.607 
42513 5 11 131.607 
42514 5 8.5 132.473 
42515 5 9.5 132.473 
42516 5 10.5 132.473 
42517 5 11.5 132.473 
42518 5 8 133.339 
42519 5 9 133.339 
42520 5 10 133.339 
42521 5 11 133.339 
42522 5 12 133.339 
ITEM: TIMESTEP
100000
ITEM: NUMBER OF ATOMS
15
ITEM: BOX BOUNDS ff fm pp
-4.1000000000000000e+01 4.1000000000000000e+01
0.0000000000000000e+00 2.0000000000000000e+02
-2.5000000000000000e-01 2.5000000000000000e-01
ITEM: ATOMS id type x y 
42508 5 10 127.5 
42509 5 9.5 128.366 
42510 5 10.5 128.366 
42511 5 9 129.232 
42512 5 10 129.232 
42513 5 11 129.232 
42514 5 8.5 130.098 
42515 5 9.5 130.098 
42516 5 10.5 130.098 
42517 5 11.5 130.098 
42518 5 8 130.964 
42519 5 9 130.964 
42520 5 10 130.964 
42521 5 11 130.964 
42522 5 12 130.964 
ITEM: TIMESTEP
110000
ITEM: NUMBER OF ATOMS
15
ITEM: BOX BOUNDS ff fm pp
-4.1000000000000000e+01 4.1000000000000000e+01
0.0000000000000000e+00 2.0000000000000000e+02
-2.5000000000000000e-01 2.5000000000000000e-01
ITEM: ATOMS id type x y 
42508 5 10 124.875 
42509 5 9.5 125.741 
42510 5 10.5 125.741 
42511 5 9 126.607 
42512 5 10 126.607 
42513 5 11 126.607 
42514 5 8.5 127.473 
42515 5 9.5 127.473 
42516 5 10.5 127.473 
42517 5 11.5 127.473 
42518 5 8 128.339 
42519 5 9 128.339 
42520 5 10 128.339 
42521 5 11 128.339 
42522 5 12 128.339 
ITEM: TIMESTEP
120000
ITEM: NUMBER OF ATOMS
15
ITEM: BOX BOUNDS ff fm pp
-4.1000000000000000e+01 4.1000000000000000e+01
0.0000000000000000e+00 2.0000000000000000e+02
-2.5000000000000000e-01 2.5000000000000000e-01
ITEM: ATOMS id type x y 
42508 5 10 122 
42509 5 9.5 122.866 
42510 5 10.5 122.866 
42511 5 9 123.732 
42512 5 10 123.732 
42513 5 11 123.732 
42514 5 8.5 124.598 
42515 5 9.5 124.598 
42516 5 10.5 124.598 
42517 5 11.5 124.598 
42518 5 8 125.464 
42519 5 9 125.464 
42520 5 10 125.464 
42521 5 11 125.464 
42522 5 12 125.464 
ITEM: TIMESTEP
130000
ITEM: NUMBER OF ATOMS
15
ITEM: BOX BOUNDS ff fm pp
-4.1000000000000000e+01 4.1000000000000000e+01
0.0000000000000000e+00 2.0000000000000000e+02
-2.5000000000000000e-01 2.5000000000000000e-01
ITEM: ATOMS id type x y 
42508 5 10.0018 118.882 
42509 5 9.50138 119.748 
42510 5 10.5014 119.748 
42511 5 9.00093 120.614 
42512 5 10.0009 120.614 
42513 5 11.0009 120.615 
42514 5 8.50049 121.479 
42515 5 9.50049 121.48 
42516 5 10.5005 121.48 
42517 5 11.5005 121.481 
42518 5 8.00004 122.345 
42519 5 9.00004 122.346 
42520 5 10 122.346 
42521 5 11 122.347 
42522 5 12 122.347 
ITEM: TIMESTEP
140000
ITEM: NUMBER OF ATOMS
15
ITEM: BOX BOUNDS ff fm pp
-4.1000000000000000e+01 4.1000000000000000e+01
0.0000000000000000e+00 2.0000000000000000e+02
-2.5000000000000000e-01 2.5000000000000000e-01
ITEM: ATOMS id type x y 
42508 5 10.0122 115.622 
42509 5 9.50984 116.486 
42510 5 10.5098 116.489 
42511 5 9.00743 117.351 
42512 5 10.0074 117.354 
42513 5 11.0074 117.356 
42514 5 8.50502 118.215 
42515 5 9.50502 118.218 
42516 5 10.505 118.221 
42517 5 11.505 118.224 
42518 5 8.00261 119.08 
42519 5 9.00261 119.083 
42520 5 10.0026 119.086 
42521 5 11.0026 119.088 
42522 5 12.0026 119.091 
ITEM: TIMESTEP
150000
ITEM: NUMBER OF ATOMS
15
ITEM: BOX BOUNDS ff fm pp
-4.1000000000000000e+01 4.1000000000000000e+01
0.0000000000000000e+00 2.0000000000000000e+02
-2.5000000000000000e-01 2.5000000000000000e-01
ITEM: ATOMS id type x y 
42508 5 10.0474 112.448 
42509 5 9.54174 113.311 
42510 5 10.5417 113.318 
42511 5 9.03613 114.174 
42512 5 10.0361 114.18 
42513 5 11.0361 114.187 
42514 5 8.53052 115.037 
42515 5 9.5305 115.043 
42516 5 10.5305 115.049 
42517 5 11.5305 115.056 
42518 5 8.02491 115.899 
42519 5 9.02489 115.906 
42520 5 10.0249 115.912 
42521 5 11.0248 115.919 
42522 5 12.0248 115.925 
ITEM: TIMESTEP
160000
ITEM: NUMBER OF ATOMS
15
ITEM: BOX BOUNDS ff fm pp
-4.1000000000000000e+01 4.1000000000000000e+01
0.0000000000000000e+00 2.0000000000000000e+02
-2.5000000000000000e-01 2.5000000000000000e-01
ITEM: ATOMS id type x y 
42508 5 10.1438 109.474 
42509 5 9.62237 110.328 
42510 5 10.6221 110.353 
42511 5 9.10092 111.181 
42512 5 10.1006 111.206 
42513 5 11.1003 111.231 
42514 5 8.57947 112.034 
42515 5 9.57916 112.059 
42516 5 10.5788 112.084 
42517 5 11.5785 112.109 
42518 5 8.05802 112.888 
42519 5 9.05771 112.912 
42520 5 10.0574 112.937 
42521 5 11.0571 112.962 
42522 5 12.0568 112.987 
ITEM: TIMESTEP
170000
ITEM: NUMBER OF ATOMS
15
ITEM: BOX BOUNDS ff fm pp
-4.1000000000000000e+01 4.1000000000000000e+01
0.0000000000000000e+00 2.0000000000000000e+02
-2.5000000000000000e-01 2.5000000000000000e-01
ITEM: ATOMS id type x y 
42508 5 10.248 106.76 
42509 5 9.72065 107.61 
42510 5 10.7201 107.642 
42511 5 9.19332 108.459 
42512 5 10.1928 108.491 
42513 5 11.1923 108.523 
42514 5 8.666 109.309 
42515 5 9.66549 109.341 
42516 5 10.665 109.373 
42517 5 11.6645 109.405 
42518 5 8.13868 110.159 
42519 5 9.13817 110.191 
42520 5 10.1377 110.222 
42521 5 11.1372 110.254 
42522 5 12.1366 110.286 
ITEM: TIMESTEP
180000
ITEM: NUMBER OF ATOMS
15
ITEM: BOX BOUNDS ff fm pp
-4.1000000000000000e+01 4.1000000000000000e+01
0.0000000000000000e+00 2.0000000000000000e+02
-2.5000000000000000e-01 2.5000000000000000e-01
ITEM: ATOMS id type x y 
42508 5 10.4322 104.141 
42509 5 9.89707 104.986 
42510 5 10.8962 105.027 
42511 5 9.36196 105.831 
42512 5 10.3611 105.872 
42513 5 11.3603 105.913 
42514 5 8.82685 106.676 
42515 5 9.82601 106.717 
42516 5 10.8252 106.758 
42517 5 11.8243 106.799 
42518 5 8.29174 107.52 
42519 5 9.2909 107.561 
42520 5 10.2901 107.603 
42521 5 11.2892 107.644 
42522 5 12.2884 107.685 
ITEM: TIMESTEP
190000
ITEM: NUMBER OF ATOMS
15
ITEM: BOX BOUNDS ff fm pp
-4.1000000000000000e+01 4.1000000000000000e+01
0.0000000000000000e+00 2.0000000000000000e+02
-2.5000000000000000e-01 2.5000000000000000e-01
ITEM: ATOMS id type x y 
42508 5 10.6482 101.573 
42509 5 10.1121 102.417 
42510 5 11.1112 102.459 
42511 5 9.57604 103.261 
42512 5 10.5752 103.303 
42513 5 11.5743 103.346 
42514 5 9.03996 104.105 
42515 5 10.0391 104.148 
42516 5 11.0382 104.19 
42517 5 12.0373 104.232 
42518 5 8.50388 104.95 
42519 5 9.50299 104.992 
42520 5 10.5021 105.034 
42521 5 11.5012 105.076 
42522 5 12.5003 105.118 
ITEM: TIMESTEP
200000
ITEM: NUMBER OF ATOMS
15
ITEM: BOX BOUNDS ff fm pp
-4.1000000000000000e+01 4.1000000000000000e+01
0.0000000000000000e+00 2.0000000000000000e+02
-2.5000000000000000e-01 2.5000000000000000e-01
ITEM: ATOMS id type x y 
42508 5 10.9036 99.0066 
42509 5 10.3727 99.854 
42510 5 11.3721 99.8901 
42511 5 9.84178 100.701 
42512 5 10.8411 100.738 
42513 5 11.8405 100.774 
42514 5 9.31085 101.549 
42515 5 10.3102 101.585 
42516 5 11.3096 101.621 
42517 5 12.3089 101.657 
42518 5 8.77993 102.396 
42519 5 9.77927 102.432 
42520 5 10.7786 102.468 
42521 5 11.778 102.504 
42522 5 12.7773 102.541 
ITEM: TIMESTEP
210000
ITEM: NUMBER OF ATOMS
15
ITEM: BOX BOUNDS ff fm pp
-4.1000000000000000e+01 4.1000000000000000e+01
0.0000000000000000e+00 2.0000000000000000e+02
-2.5000000000000000e-01 2.5000000000000000e-01
ITEM: ATOMS id type x y 
42508 5 11.2431 96.4443 
42509 5 10.7131 97.2923 
42510 5 11.7125 97.3273 
42511 5 10.1832 98.1403 
42512 5 11.1825 98.1753 
42513 5 12.1819 98.2102 
42514 5 9.6532 98.9883 
42515 5 10.6526 99.0233 
42516 5 11.652 99.0582 
42517 5 12.6514 99.0932 
42518 5 9.12324 99.8363 
42519 5 10.1226 99.8713 
42520 5 11.122 99.9062 
42521 5 12.1214 99.9412 
42522 5 13.1208 99.9761 
ITEM: TIMESTEP
220000
ITEM: NUMBER OF ATOMS
15
ITEM: BOX BOUNDS ff fm pp
-4.1000000000000000e+01 4.1000000000000000e+01
0.0000000000000000e+00 2.0000000000000000e+02
-2.5000000000000000e-01 2.5000000000000000e-01
ITEM: ATOMS id type x y 
42508 5 11.6463 93.8539 
42509 5 11.1189 94.7034 
42510 5 12.1184 94.7354 
42511 5 10.5914 95.553 
42512 5 11.5909 95.585 
42513 5 12.5904 95.617 
42514 5 10.064 96.4025 
42515 5 11.0634 96.4345 
42516 5 12.0629 96.4665 
42517 5 13.0624 96.4985 
42518 5 9.53651 97.2521 
42519 5 10.536 97.2841 
42520 5 11.5355 97.3161 
42521 5 12.535 97.3481 
42522 5 13.5345 97.3801 
ITEM: TIMESTEP
230000
ITEM: NUMBER OF ATOMS
15
ITEM: BOX BOUNDS ff fm pp
-4.1000000000000000e+01 4.1000000000000000e+01
0.0000000000000000e+00 2.0000000000000000e+02
-2.5000000000000000e-01 2.5000000000000000e-01
ITEM: ATOMS id type x y 
42508 5 12.0975 91.1855 
42509 5 11.5692 92.0345 
42510 5 12.5687 92.0675 
42511 5 11.041 92.8836 
42512 5 12.0404 92.9166 
42513 5 13.0399 92.9495 
42514 5 10.5127 93.7326 
42515 5 11.5121 93.7656 
42516 5 12.5116 93.7986 
42517 5 13.511 93.8315 
42518 5 9.9844 94.5817 
42519 5 10.9839 94.6146 
42520 5 11.9833 94.6476 
42521 5 12.9828 94.6806 
42522 5 13.9822 94.7135 
ITEM: TIMESTEP
240000
ITEM: NUMBER OF ATOMS
15
ITEM: BOX BOUNDS ff fm pp
-4.1000000000000000e+01 4.1000000000000000e+01
0.0000000000000000e+00 2.0000000000000000e+02
-2.5000000000000000e-01 2.5000000000000000e-01
ITEM: ATOMS id type x y 
42508 5 12.5624 88.4289 
42509 5 12.0415 89.2826 
42510 5 13.0412 89.3068 
42511 5 11.5207 90.1362 
42512 5 12.5204 90.1604 
42513 5 13.5201 90.1847 
42514 5 10.9998 90.9898 
42515 5 11.9995 91.0141 
42516 5 12.9992 91.0383 
42517 5 13.9989 91.0625 
42518 5 10.479 91.8434 
42519 5 11.4787 91.8677 
42520 5 12.4784 91.8919 
42521 5 13.4781 91.9162 
42522 5 14.4778 91.9404 
ITEM: TIMESTEP
250000
ITEM: NUMBER OF ATOMS
15
ITEM: BOX BOUNDS ff fm pp
-4.1000000000000000e+01 4.1000000000000000e+01
0.0000000000000000e+00 2.0000000000000000e+02
-2.5000000000000000e-01 2.5000000000000000e-01
ITEM: ATOMS id type x y 
42508 5 13.047 85.5572 
42509 5 12.5425 86.4205 
42510 5 13.5425 86.4258 
42511 5 12.0379 87.2839 
42512 5 13.0379 87.2891 
42513 5 14.0379 87.2944 
42514 5 11.5334 88.1473 
42515 5 12.5334 88.1525 
42516 5 13.5334 88.1578 
42517 5 14.5333 88.163 
42518 5 11.0288 89.0106 
42519 5 12.0288 89.0159 
42520 5 13.0288 89.0211 
42521 5 14.0288 89.0264 
42522 5 15.0288 89.0316 
ITEM: TIMESTEP
260000
ITEM: NUMBER OF ATOMS
15
ITEM: BOX BOUNDS ff fm pp
-4.1000000000000000e+01 4.1000000000000000e+01
0.0000000000000000e+00 2.0000000000000000e+02
-2.5000000000000000e-01 2.5000000000000000e-01
ITEM: ATOMS id type x y 
42508 5 13.5595 82.5742 
42509 5 13.0755 83.4493 
42510 5 14.0753 83.4309 
42511 5 12.5914 84.3243 
42512 5 13.5913 84.3059 
42513 5 14.5911 84.2876 
42514 5 12.1074 85.1993 
42515 5 13.1072 85.181 
42516 5 14.1071 85.1626 
42517 5 15.1069 85.1443 
42518 5 11.6234 86.0743 
42519 5 12.6232 86.056 
42520 5 13.623 86.0377 
42521 5 14.6229 86.0193 
42522 5 15.6227 86.001 
ITEM: TIMESTEP
270000
ITEM: NUMBER OF ATOMS
15
ITEM: BOX BOUNDS ff fm pp
-4.1000000000000000e+01 4.1000000000000000e+01
0.0000000000000000e+00 2.0000000000000000e+02
-2.5000000000000000e-01 2.5000000000000000e-01
ITEM: ATOMS id type x y 
42508 5 14.1485 79.5028 
42509 5 13.6788 80.3856 
42510 5 14.6782 80.3509 
42511 5 13.2092 81.2684 
42512 5 14.2086 81.2337 
42513 5 15.208 81.199 
42514 5 12.7395 82.1513 
42515 5 13.7389 82.1166 
42516 5 14.7383 82.0819 
42517 5 15.7377 82.0472 
42518 5 12.2699 83.0341 
42519 5 13.2693 82.9994 
42520 5 14.2687 82.9647 
42521 5 15.2681 82.93 
42522 5 16.2675 82.8953 
ITEM: TIMESTEP
280000
ITEM: NUMBER OF ATOMS
15
ITEM: BOX BOUNDS ff fm pp
-4.1000000000000000e+01 4.1000000000000000e+01
0.0000000000000000e+00 2.0000000000000000e+02
-2.5000000000000000e-01 2.5000000000000000e-01
ITEM: ATOMS id type x y 
42508 5 14.7434 76.3372 
42509 5 14.2956 77.2313 
42510 5 15.2938 77.1721 
42511 5 13.8478 78.1254 
42512 5 14.846 78.0661 
42513 5 15.8442 78.0069 
42515 5 14.3982 78.9602 
42516 5 15.3964 78.901 
42517 5 16.3947 78.8418 
42514 5 13.3999 79.0195 
42518 5 12.9521 79.9135 
42519 5 13.9503 79.8543 
42520 5 14.9486 79.7951 
42521 5 15.9468 79.7359 
42522 5 16.9451 79.6767 
ITEM: TIMESTEP
290000
ITEM: NUMBER OF ATOMS
15
ITEM: BOX BOUNDS ff fm pp
-4.1000000000000000e+01 4.1000000000000000e+01
0.0000000000000000e+00 2.0000000000000000e+02
-2.5000000000000000e-01 2.5000000000000000e-01
ITEM: ATOMS id type x y 
42508 5 15.3483 73.0528 
42509 5 14.926 73.9592 
42510 5 15.9221 73.8717 
42513 5 16.496 74.6907 
42511 5 14.5036 74.8656 
42512 5 15.4998 74.7781 
42514 5 14.0813 75.772 
42515 5 15.0775 75.6845 
42516 5 16.0736 75.5971 
42517 5 17.0698 75.5096 
42520 5 15.6513 76.5035 
42521 5 16.6475 76.416 
42522 5 17.6436 76.3285 
42518 5 13.659 76.6784 
42519 5 14.6551 76.591 
ITEM: TIMESTEP
300000
ITEM: NUMBER OF ATOMS
15
ITEM: BOX BOUNDS ff fm pp
-4.1000000000000000e+01 4.1000000000000000e+01
0.0000000000000000e+00 2.0000000000000000e+02
-2.5000000000000000e-01 2.5000000000000000e-01
ITEM: ATOMS id type x y 
42508 5 15.9595 69.6441 
42510 5 16.5563 70.4465 
42509 5 15.563 70.5621 
42511 5 15.1665 71.4802 
42512 5 16.1598 71.3645 
42513 5 17.1531 71.2488 
42515 5 15.7633 72.2825 
42516 5 16.7566 72.1669 
42517 5 17.7499 72.0512 
42514 5 14.77 72.3982 
42522 5 18.3467 72.8536 
42518 5 14.3736 73.3162 
42519 5 15.3668 73.2005 
42520 5 16.3601 73.0849 
42521 5 17.3534 72.9692 
ITEM: TIMESTEP
310000
ITEM: NUMBER OF ATOMS
15
ITEM: BOX BOUNDS ff fm pp
-4.1000000000000000e+01 4.1000000000000000e+01
0.0000000000000000e+00 2.0000000000000000e+02
-2.5000000000000000e-01 2.5000000000000000e-01
ITEM: ATOMS id type x y 
42508 5 16.583 66.1481 
42509 5 16.213 67.0771 
42510 5 17.2025 66.933 
42511 5 15.843 68.0061 
42512 5 16.8325 67.862 
42513 5 17.8221 67.7179 
42516 5 17.4521 68.6469 
42517 5 18.4417 68.5028 
42514 5 15.473 68.9351 
42515 5 16.4625 68.791 
42522 5 19.0612 69.2877 
42518 5 15.103 69.8641 
42519 5 16.0925 69.72 
42520 5 17.0821 69.5759 
42521 5 18.0717 69.4318 
ITEM: TIMESTEP
320000
ITEM: NUMBER OF ATOMS
15
ITEM: BOX BOUNDS ff fm pp
-4.1000000000000000e+01 4.1000000000000000e+01
0.0000000000000000e+00 2.0000000000000000e+02
-2.5000000000000000e-01 2.5000000000000000e-01
ITEM: ATOMS id type x y 
42508 5 17.1773 62.5994 
42509 5 16.8432 63.5419 
42510 5 17.8265 63.3599 
42511 5 16.5092 64.4844 
42512 5 17.4925 64.3025 
42513 5 18.4758 64.1205 
42516 5 18.1417 65.063 
42517 5 19.125 64.881 
42514 5 16.1751 65.4269 
42515 5 17.1584 65.245 
42522 5 19.7743 65.6416 
42518 5 15.841 66.3695 
42519 5 16.8243 66.1875 
42520 5 17.8076 66.0055 
42521 5 18.7909 65.8236 
ITEM: TIMESTEP
330000
ITEM: NUMBER OF ATOMS
15
ITEM: BOX BOUNDS ff fm pp
-4.1000000000000000e+01 4.1000000000000000e+01
0.0000000000000000e+00 2.0000000000000000e+02
-2.5000000000000000e-01 2.5000000000000000e-01
ITEM: ATOMS id type x y 
42508 5 17.7416 59.0096 
42509 5 17.4513 59.9665 
42510 5 18.4252 59.7395 
42511 5 17.161 60.9234 
42512 5 18.1348 60.6964 
42513 5 19.1087 60.4693 
42516 5 18.8184 61.4262 
42517 5 19.7923 61.1992 
42514 5 16.8706 61.8803 
42515 5 17.8445 61.6533 
42522 5 20.4758 61.9291 
42519 5 17.5542 62.6102 
42520 5 18.5281 62.3831 
42521 5 19.5019 62.1561 
42518 5 16.5803 62.8372 
ITEM: TIMESTEP
340000
ITEM: NUMBER OF ATOMS
15
ITEM: BOX BOUNDS ff fm pp
-4.1000000000000000e+01 4.1000000000000000e+01
0.0000000000000000e+00 2.0000000000000000e+02
-2.5000000000000000e-01 2.5000000000000000e-01
ITEM: ATOMS id type x y 
42508 5 18.2553 55.3856 
42510 5 18.9751 56.0799 
42509 5 18.0139 56.356 
42511 5 17.7726 57.3264 
42512 5 18.7337 57.0503 
42513 5 19.6948 56.7741 
42516 5 19.4534 57.7445 
42517 5 20.4145 57.4683 
42514 5 17.5312 58.2968 
42515 5 18.4923 58.0207 
42521 5 20.1731 58.4387 
42522 5 21.1342 58.1626 
42519 5 18.2509 58.9911 
42520 5 19.212 58.7149 
42518 5 17.2898 59.2673 
ITEM: TIMESTEP
350000
ITEM: NUMBER OF ATOMS
15
ITEM: BOX BOUNDS ff fm pp
-4.1000000000000000e+01 4.1000000000000000e+01
0.0000000000000000e+00 2.0000000000000000e+02
-2.5000000000000000e-01 2.5000000000000000e-01
ITEM: ATOMS id type x y 
42508 5 18.7416 51.7599 
42510 5 19.4928 52.42 
42509 5 18.5455 52.7405 
42513 5 20.244 53.08 
42511 5 18.3495 53.7211 
42512 5 19.2967 53.4005 
42516 5 20.0479 54.0606 
42517 5 20.9951 53.7401 
42514 5 18.1534 54.7016 
42515 5 19.1007 54.3811 
42521 5 20.7991 54.7207 
42522 5 21.7463 54.4002 
42519 5 18.9046 55.3617 
42520 5 19.8518 55.0412 
42518 5 17.9573 55.6822 
ITEM: TIMESTEP
360000
ITEM: NUMBER OF ATOMS
15
ITEM: BOX BOUNDS ff fm pp
-4.1000000000000000e+01 4.1000000000000000e+01
0.0000000000000000e+00 2.0051200744064562e+02
-2.5000000000000000e-01 2.5000000000000000e-01
ITEM: ATOMS id type x y 
42508 5 19.1666 48.1268 
42510 5 19.9479 48.751 
42509 5 19.0167 49.1155 
42513 5 20.7292 49.3752 
42511 5 18.8668 50.1042 
42512 5 19.798 49.7397 
42517 5 21.5104 49.9993 
42515 5 19.648 50.7283 
42516 5 20.5792 50.3638 
42522 5 22.2917 50.6235 
42514 5 18.7168 51.0929 
42520 5 20.4293 51.3525 
42521 5 21.3605 50.988 
42519 5 19.4981 51.717 
42518 5 18.5669 52.0815 
ITEM: TIMESTEP
370000
ITEM: NUMBER OF ATOMS
15
ITEM: BOX BOUNDS ff fm pp
-4.1000000000000000e+01 4.1000000000000000e+01
0.0000000000000000e+00 2.0101914256289209e+02
-2.5000000000000000e-01 2.5000000000000000e-01
ITEM: ATOMS id type x y 
42508 5 19.5188 44.5093 
42509 5 19.4172 45.5041 
42510 5 20.3295 45.0947 
42512 5 20.2279 46.0895 
42513 5 21.1403 45.6801 
42511 5 19.3155 46.4989 
42516 5 21.0386 46.6749 
42517 5 21.951 46.2656 
42515 5 20.1262 47.0843 
42521 5 21.8493 47.2604 
42522 5 22.7617 46.851 
42514 5 19.2139 47.4937 
42520 5 20.937 47.6697 
42518 5 19.1122 48.4885 
42519 5 20.0246 48.0791 
ITEM: TIMESTEP
380000
ITEM: NUMBER OF ATOMS
15
ITEM: BOX BOUNDS ff fm pp
-4.1000000000000000e+01 4.1000000000000000e+01
0.0000000000000000e+00 2.0128162966956086e+02
-2.5000000000000000e-01 2.5000000000000000e-01
ITEM: ATOMS id type x y 
42508 5 19.7581 40.9164 
42509 5 19.7106 41.9152 
42510 5 20.5994 41.4569 
42512 5 20.5518 42.4558 
42513 5 21.4406 41.9975 
42517 5 22.2819 42.538 
42511 5 19.663 42.9141 
42516 5 21.3931 42.9963 
42522 5 23.1232 43.0786 
42515 5 20.5043 43.4546 
42521 5 22.2344 43.5369 
42514 5 19.6155 43.9129 
42520 5 21.3456 43.9952 
42518 5 19.568 44.9118 
42519 5 20.4568 44.4535 
ITEM: TIMESTEP
390000
ITEM: NUMBER OF ATOMS
15
ITEM: BOX BOUNDS ff fm pp
-4.1000000000000000e+01 4.1000000000000000e+01
0.0000000000000000e+00 2.0129083946787219e+02
-2.5000000000000000e-01 2.5000000000000000e-01
ITEM: ATOMS id type x y 
42508 5 19.8614 37.3652 
42509 5 19.8891 38.3648 
42510 5 20.7409 37.841 
42513 5 21.6205 38.3167 
42512 5 20.7687 38.8405 
42517 5 22.5 38.7924 
42511 5 19.9169 39.3644 
42516 5 21.6482 39.3163 
42522 5 23.3796 39.2682 
42515 5 20.7964 39.8401 
42521 5 22.5278 39.792 
42514 5 19.9446 40.364 
42520 5 21.676 40.3159 
42518 5 19.9724 41.3636 
42519 5 20.8242 40.8397 
ITEM: TIMESTEP
400000
ITEM: NUMBER OF ATOMS
15
ITEM: BOX BOUNDS ff fm pp
-4.1000000000000000e+01 4.1000000000000000e+01
0.0000000000000000e+00 2.0104982978455325e+02
-2.5000000000000000e-01 2.5000000000000000e-01
ITEM: ATOMS id type x y 
42508 5 19.9171 33.8122 
42510 5 20.8257 34.2299 
42513 5 21.7342 34.6477 
42509 5 20.0096 34.8079 
42512 5 20.9181 35.2256 
42517 5 22.6427 35.0654 
42511 5 20.102 35.8036 
42516 5 21.8266 35.6434 
42522 5 23.5513 35.4832 
42515 5 21.0106 36.2213 
42521 5 22.7352 36.0611 
42514 5 20.1945 36.7993 
42520 5 21.9191 36.6391 
42519 5 21.103 37.217 
42518 5 20.2869 37.795 
ITEM: TIMESTEP
410000
ITEM: NUMBER OF ATOMS
15
ITEM: BOX BOUNDS ff fm pp
-4.1000000000000000e+01 4.1000000000000000e+01
0.0000000000000000e+00 2.0055691270786426e+02
-2.5000000000000000e-01 2.5000000000000000e-01
ITEM: ATOMS id type x y 
42508 5 19.8824 30.3297 
42510 5 20.8136 30.6942 
42509 5 20.0323 31.3184 
42513 5 21.7448 31.0587 
42517 5 22.676 31.4232 
42512 5 20.9635 31.6829 
42516 5 21.8947 32.0474 
42522 5 23.6072 31.7877 
42511 5 20.1822 32.3071 
42515 5 21.1134 32.6716 
42521 5 22.8259 32.4119 
42514 5 20.3321 33.2958 
42520 5 22.0446 33.0361 
42519 5 21.2633 33.6603 
42518 5 20.4821 34.2845 
ITEM: TIMESTEP
420000
ITEM: NUMBER OF ATOMS
15
ITEM: BOX BOUNDS ff fm pp
-4.1000000000000000e+01 4.1000000000000000e+01
0.0000000000000000e+00 2.0000000000000000e+02
-2.5000000000000000e-01 2.5000000000000000e-01
ITEM: ATOMS id type x y 
42508 5 19.7928 26.8709 
42510 5 20.7414 27.1873 
42509 5 19.9931 27.8506 
42513 5 21.69 27.5037 
42517 5 22.6387 27.82 
42512 5 20.9417 28.167 
42516 5 21.8904 28.4834 
42522 5 23.5873 28.1364 
42511 5 20.1934 28.8304 
42521 5 22.839 28.7997 
42515 5 21.142 29.1467 
42520 5 22.0907 29.4631 
42514 5 20.3937 29.8101 
42519 5 21.3423 30.1264 
42518 5 20.594 30.7898 
ITEM: TIMESTEP
430000
ITEM: NUMBER OF ATOMS
15
ITEM: BOX BOUNDS ff fm pp
-4.1000000000000000e+01 4.1000000000000000e+01
0.0000000000000000e+00 2.0000000000000000e+02
-2.5000000000000000e-01 2.5000000000000000e-01
ITEM: ATOMS id type x y 
42508 5 19.6451 23.4457 
42510 5 20.6081 23.7153 
42513 5 21.571 23.9849 
42517 5 22.534 24.2546 
42509 5 19.8931 24.4145 
42512 5 20.856 24.6841 
42522 5 23.4969 24.5242 
42511 5 20.1411 25.3832 
42516 5 21.819 24.9537 
42521 5 22.7819 25.2233 
42515 5 21.104 25.6528 
42520 5 22.0669 25.9224 
42514 5 20.389 26.352 
42519 5 21.352 26.6216 
42518 5 20.637 27.3207 
ITEM: TIMESTEP
440000
ITEM: NUMBER OF ATOMS
15
ITEM: BOX BOUNDS ff fm pp
-4.1000000000000000e+01 4.1000000000000000e+01
0.0000000000000000e+00 2.0000000000000000e+02
-2.5000000000000000e-01 2.5000000000000000e-01
ITEM: ATOMS id type x y 
42508 5 19.4635 20.0612 
42510 5 20.4355 20.296 
42513 5 21.4076 20.5308 
42509 5 19.7462 21.0204 
42512 5 20.7182 21.2552 
42517 5 22.3796 20.7656 
42522 5 23.3516 21.0004 
42516 5 21.6902 21.49 
42521 5 22.6622 21.7248 
42511 5 20.0288 21.9796 
42515 5 21.0008 22.2144 
42520 5 21.9729 22.4492 
42514 5 20.3115 22.9388 
42519 5 21.2835 23.1736 
42518 5 20.5941 23.898 
ITEM: TIMESTEP
450000
ITEM: NUMBER OF ATOMS
15
ITEM: BOX BOUNDS ff fm pp
-4.1000000000000000e+01 4.1000000000000000e+01
0.0000000000000000e+00 2.0000000000000000e+02
-2.5000000000000000e-01 2.5000000000000000e-01
ITEM: ATOMS id type x y 
42508 5 19.2369 16.765 
42510 5 20.2158 16.969 
42513 5 21.1948 17.1731 
42517 5 22.1737 17.3771 
42522 5 23.1526 17.5812 
42509 5 19.5496 17.7148 
42512 5 20.5285 17.9188 
42516 5 21.5075 18.1229 
42511 5 19.8623 18.6646 
42515 5 20.8413 18.8686 
42521 5 22.4864 18.3269 
42520 5 21.8202 19.0727 
42514 5 20.1751 19.6144 
42519 5 21.154 19.8185 
42518 5 20.4878 20.5642 
ITEM: TIMESTEP
460000
ITEM: NUMBER OF ATOMS
15
ITEM: BOX BOUNDS ff fm pp
-4.1000000000000000e+01 4.1000000000000000e+01
0.0000000000000000e+00 2.0000000000000000e+02
-2.5000000000000000e-01 2.5000000000000000e-01
ITEM: ATOMS id type x y 
42508 5 18.9794 13.5853 
42510 5 19.9604 13.779 
42513 5 20.9415 13.9727 
42509 5 19.3022 14.5318 
42512 5 20.2832 14.7255 
42517 5 21.9225 14.1663 
42522 5 22.9036 14.36 
42516 5 21.2643 14.9191 
42521 5 22.2453 15.1128 
42511 5 19.625 15.4782 
42515 5 20.606 15.6719 
42520 5 21.5871 15.8656 
42514 5 19.9477 16.4247 
42519 5 20.9288 16.6184 
42518 5 20.2705 17.3711 
ITEM: TIMESTEP
470000
ITEM: NUMBER OF ATOMS
15
ITEM: BOX BOUNDS ff fm pp
-4.1000000000000000e+01 4.1000000000000000e+01
0.0000000000000000e+00 2.0000000000000000e+02
-2.5000000000000000e-01 2.5000000000000000e-01
ITEM: ATOMS id type x y 
42508 5 18.7068 10.8249 
42510 5 19.69 11.007 
42509 5 19.0406 11.7675 
42513 5 20.6733 11.1892 
42517 5 21.6565 11.3714 
42522 5 22.6398 11.5536 
42512 5 20.0239 11.9497 
42516 5 21.0071 12.1318 
42521 5 21.9903 12.314 
42511 5 19.3744 12.7101 
42515 5 20.3577 12.8923 
42520 5 21.3409 13.0744 
42514 5 19.7083 13.6527 
42519 5 20.6915 13.8349 
42518 5 20.0421 14.5953 
ITEM: TIMESTEP
480000
ITEM: NUMBER OF ATOMS
15
ITEM: BOX BOUNDS ff fm pp
-4.1000000000000000e+01 4.1000000000000000e+01
0.0000000000000000e+00 2.0000000000000000e+02
-2.5000000000000000e-01 2.5000000000000000e-01
ITEM: ATOMS id type x y 
42508 5 18.513 8.83368 
42510 5 19.4865 9.06237 
42513 5 20.46 9.29106 
42509 5 18.8017 9.79109 
42512 5 19.7752 10.0198 
42517 5 21.4335 9.51975 
42522 5 22.4069 9.74843 
42516 5 20.7486 10.2485 
42521 5 21.7221 10.4772 
42511 5 19.0904 10.7485 
42515 5 20.0638 10.9772 
42520 5 21.0373 11.2059 
42514 5 19.379 11.7059 
42519 5 20.3525 11.9346 
42518 5 19.6677 12.6633 
ITEM: TIMESTEP
490000
ITEM: NUMBER OF ATOMS
15
ITEM: BOX BOUNDS ff fm pp
-4.1000000000000000e+01 4.1000000000000000e+01
0.0000000000000000e+00 2.0000000000000000e+02
-2.5000000000000000e-01 2.5000000000000000e-01
ITEM: ATOMS id type x y 
42508 5 18.1605 7.80721 
42510 5 19.1312 8.04744 
42513 5 20.1019 8.28768 
42509 5 18.4378 8.76798 
42517 5 21.0726 8.52791 
42522 5 22.0433 8.76815 
42512 5 19.4085 9.00821 
42516 5 20.3792 9.24844 
42521 5 21.3499 9.48868 
42511 5 18.7151 9.72874 
42515 5 19.6858 9.96898 
42514 5 18.9923 10.6895 
42520 5 20.6565 10.2092 
42519 5 19.963 10.9297 
42518 5 19.2696 11.6503 
ITEM: TIMESTEP
500000
ITEM: NUMBER OF ATOMS
15
ITEM: BOX BOUNDS ff fm pp
-4.1000000000000000e+01 4.1000000000000000e+01
0.0000000000000000e+00 2.0000000000000000e+02
-2.5000000000000000e-01 2.5000000000000000e-01
ITEM: ATOMS id type x y 
42508 5 17.7556 7.51706 
42510 5 18.7338 7.72482 
42513 5 19.7119 7.93257 
42517 5 20.6901 8.14032 
42522 5 21.6682 8.34808 
42509 5 18.0647 8.46806 
42512 5 19.0429 8.67581 