ITEM: TIMESTEP
0
ITEM: NUMBER OF ATOMS
36
ITEM: BOX BOUNDS ff fm pp
-4.1000000000000000e+01 4.1000000000000000e+01
0.0000000000000000e+00 2.0000000000000000e+02
-2.5000000000000000e-01 2.5000000000000000e-01
ITEM: ATOMS id x y 
42464 -0.5 140.866 
42466 -1 141.732 
42469 -1.5 142.598 
42470 -0.5 142.598 
42473 -2 143.464 
42474 -1 143.464 
42478 -2.5 144.33 
42479 -1.5 144.33 
42480 -0.5 144.33 
42484 -3 145.196 
42485 -2 145.196 
42486 -1 145.196 
42491 -3.5 146.062 
42492 -2.5 146.062 
42493 -1.5 146.062 
42494 -0.5 146.062 
42463 0 140 
42465 0.5 140.866 
42467 0 141.732 
42468 1 141.732 
42471 0.5 142.598 
42472 1.5 142.598 
42475 0 143.464 
42476 1 143.464 
42477 2 143.464 
42481 0.5 144.33 
42482 1.5 144.33 
42483 2.5 144.33 
42487 0 145.196 
42488 1 145.196 
42489 2 145.196 
42490 3 145.196 
42495 0.5 146.062 
42496 1.5 146.062 
42497 2.5 146.062 
42498 3.5 146.062 
ITEM: TIMESTEP
10000
ITEM: NUMBER OF ATOMS
36
ITEM: BOX BOUNDS ff fm pp
-4.1000000000000000e+01 4.1000000000000000e+01
0.0000000000000000e+00 2.0000000000000000e+02
-2.5000000000000000e-01 2.5000000000000000e-01
ITEM: ATOMS id x y 
42463 -2.39587e-17 139.875 
42464 -0.5 140.741 
42466 -1 141.607 
42467 -2.0254e-17 141.607 
42469 -1.5 142.473 
42470 -0.5 142.473 
42473 -2 143.339 
42474 -1 143.339 
42475 -1.65493e-17 143.339 
42478 -2.5 144.205 
42479 -1.5 144.205 
42480 -0.5 144.205 
42484 -3 145.071 
42485 -2 145.071 
42486 -1 145.071 
42487 -1.28447e-17 145.071 
42491 -3.5 145.937 
42492 -2.5 145.937 
42493 -1.5 145.937 
42494 -0.5 145.937 
42465 0.5 140.741 
42468 1 141.607 
42471 0.5 142.473 
42472 1.5 142.473 
42476 1 143.339 
42477 2 143.339 
42481 0.5 144.205 
42482 1.5 144.205 
42483 2.5 144.205 
42488 1 145.071 
42489 2 145.071 
42490 3 145.071 
42495 0.5 145.937 
42496 1.5 145.937 
42497 2.5 145.937 
42498 3.5 145.937 
ITEM: TIMESTEP
20000
ITEM: NUMBER OF ATOMS
36
ITEM: BOX BOUNDS ff fm pp
-4.1000000000000000e+01 4.1000000000000000e+01
0.0000000000000000e+00 2.0000000000000000e+02
-2.5000000000000000e-01 2.5000000000000000e-01
ITEM: ATOMS id x y 
42463 -1.17038e-16 139.5 
42464 -0.5 140.366 
42466 -1 141.232 
42467 -9.31317e-17 141.232 
42469 -1.5 142.098 
42470 -0.5 142.098 
42473 -2 142.964 
42474 -1 142.964 
42475 -6.92254e-17 142.964 
42478 -2.5 143.83 
42479 -1.5 143.83 
42480 -0.5 143.83 
42484 -3 144.696 
42485 -2 144.696 
42486 -1 144.696 
42487 -4.53192e-17 144.696 
42491 -3.5 145.562 
42492 -2.5 145.562 
42493 -1.5 145.562 
42494 -0.5 145.562 
42465 0.5 140.366 
42468 1 141.232 
42471 0.5 142.098 
42472 1.5 142.098 
42476 1 142.964 
42477 2 142.964 
42481 0.5 143.83 
42482 1.5 143.83 
42483 2.5 143.83 
42488 1 144.696 
42489 2 144.696 
42490 3 144.696 
42495 0.5 145.562 
42496 1.5 145.562 
42497 2.5 145.562 
42498 3.5 145.562 
ITEM: TIMESTEP
30000
ITEM: NUMBER OF ATOMS
36
ITEM: BOX BOUNDS ff fm pp
-4.1000000000000000e+01 4.1000000000000000e+01
0.0000000000000000e+00 2.0000000000000000e+02
-2.5000000000000000e-01 2.5000000000000000e-01
ITEM: ATOMS id x y 
42463 -3.03166e-16 138.875 
42464 -0.5 139.741 
42466 -1 140.607 
42467 -2.32303e-16 140.607 
42469 -1.5 141.473 
42470 -0.5 141.473 
42473 -2 142.339 
42474 -1 142.339 
42475 -1.61439e-16 142.339 
42478 -2.5 143.205 
42479 -1.5 143.205 
42480 -0.5 143.205 
42484 -3 144.071 
42485 -2 144.071 
42486 -1 144.071 
42487 -9.0576e-17 144.071 
42491 -3.5 144.937 
42492 -2.5 144.937 
42493 -1.5 144.937 
42494 -0.5 144.937 
42465 0.5 139.741 
42468 1 140.607 
42471 0.5 141.473 
42472 1.5 141.473 
42476 1 142.339 
42477 2 142.339 
42481 0.5 143.205 
42482 1.5 143.205 
42483 2.5 143.205 
42488 1 144.071 
42489 2 144.071 
42490 3 144.071 
42495 0.5 144.937 
42496 1.5 144.937 
42497 2.5 144.937 
42498 3.5 144.937 
ITEM: TIMESTEP
40000
ITEM: NUMBER OF ATOMS
36
ITEM: BOX BOUNDS ff fm pp
-4.1000000000000000e+01 4.1000000000000000e+01
0.0000000000000000e+00 2.0000000000000000e+02
-2.5000000000000000e-01 2.5000000000000000e-01
ITEM: ATOMS id x y 
42463 -5.19863e-16 138 
42464 -0.5 138.866 
42466 -1 139.732 
42467 -4.02061e-16 139.732 
42469 -1.5 140.598 
42470 -0.5 140.598 
42473 -2 141.464 
42474 -1 141.464 
42475 -2.84259e-16 141.464 
42478 -2.5 142.33 
42479 -1.5 142.33 
42480 -0.5 142.33 
42484 -3 143.196 
42485 -2 143.196 
42486 -1 143.196 
42487 -1.66457e-16 143.196 
42491 -3.5 144.062 
42492 -2.5 144.062 
42493 -1.5 144.062 
42494 -0.5 144.062 
42465 0.5 138.866 
42468 1 139.732 
42471 0.5 140.598 
42472 1.5 140.598 
42476 1 141.464 
42477 2 141.464 
42481 0.5 142.33 
42482 1.5 142.33 
42483 2.5 142.33 
42488 1 143.196 
42489 2 143.196 
42490 3 143.196 
42495 0.5 144.062 
42496 1.5 144.062 
42497 2.5 144.062 
42498 3.5 144.062 
ITEM: TIMESTEP
50000
ITEM: NUMBER OF ATOMS
36
ITEM: BOX BOUNDS ff fm pp
-4.1000000000000000e+01 4.1000000000000000e+01
0.0000000000000000e+00 2.0000000000000000e+02
-2.5000000000000000e-01 2.5000000000000000e-01
ITEM: ATOMS id x y 
42463 -7.86352e-16 136.875 
42464 -0.5 137.741 
42466 -1 138.607 
42467 -6.13389e-16 138.607 
42469 -1.5 139.473 
42470 -0.5 139.473 
42473 -2 140.339 
42474 -1 140.339 
42475 -4.40425e-16 140.339 
42478 -2.5 141.205 
42479 -1.5 141.205 
42480 -0.5 141.205 
42484 -3 142.071 
42485 -2 142.071 
42486 -1 142.071 
42487 -2.67462e-16 142.071 
42491 -3.5 142.937 
42492 -2.5 142.937 
42493 -1.5 142.937 
42494 -0.5 142.937 
42465 0.5 137.741 
42468 1 138.607 
42471 0.5 139.473 
42472 1.5 139.473 
42476 1 140.339 
42477 2 140.339 
42481 0.5 141.205 
42482 1.5 141.205 
42483 2.5 141.205 
42488 1 142.071 
42489 2 142.071 
42490 3 142.071 
42495 0.5 142.937 
42496 1.5 142.937 
42497 2.5 142.937 
42498 3.5 142.937 
ITEM: TIMESTEP
60000
ITEM: NUMBER OF ATOMS
36
ITEM: BOX BOUNDS ff fm pp
-4.1000000000000000e+01 4.1000000000000000e+01
0.0000000000000000e+00 2.0000000000000000e+02
-2.5000000000000000e-01 2.5000000000000000e-01
ITEM: ATOMS id x y 
42463 -1.0437e-15 135.5 
42464 -0.5 136.366 
42466 -1 137.232 
42467 -8.32615e-16 137.232 
42469 -1.5 138.098 
42470 -0.5 138.098 
42473 -2 138.964 
42474 -1 138.964 
42475 -6.21526e-16 138.964 
42478 -2.5 139.83 
42479 -1.5 139.83 
42480 -0.5 139.83 
42484 -3 140.696 
42485 -2 140.696 
42486 -1 140.696 
42487 -4.10438e-16 140.696 
42491 -3.5 141.562 
42492 -2.5 141.562 
42493 -1.5 141.562 
42494 -0.5 141.562 
42465 0.5 136.366 
42468 1 137.232 
42471 0.5 138.098 
42472 1.5 138.098 
42476 1 138.964 
42477 2 138.964 
42481 0.5 139.83 
42482 1.5 139.83 
42483 2.5 139.83 
42488 1 140.696 
42489 2 140.696 
42490 3 140.696 
42495 0.5 141.562 
42496 1.5 141.562 
42497 2.5 141.562 
42498 3.5 141.562 
ITEM: TIMESTEP
70000
ITEM: NUMBER OF ATOMS
36
ITEM: BOX BOUNDS ff fm pp
-4.1000000000000000e+01 4.1000000000000000e+01
0.0000000000000000e+00 2.0000000000000000e+02
-2.5000000000000000e-01 2.5000000000000000e-01
ITEM: ATOMS id x y 
42463 -1.2584e-15 133.875 
42464 -0.5 134.741 
42466 -1 135.607 
42467 -1.04059e-15 135.607 
42469 -1.5 136.473 
42470 -0.5 136.473 
42473 -2 137.339 
42474 -1 137.339 
42475 -8.22774e-16 137.339 
42478 -2.5 138.205 
42479 -1.5 138.205 
42480 -0.5 138.205 
42484 -3 139.071 
42485 -2 139.071 
42486 -1 139.071 
42487 -6.0496e-16 139.071 
42491 -3.5 139.937 
42492 -2.5 139.937 
42493 -1.5 139.937 
42494 -0.5 139.937 
42465 0.5 134.741 
42468 1 135.607 
42471 0.5 136.473 
42472 1.5 136.473 
42476 1 137.339 
42477 2 137.339 
42481 0.5 138.205 
42482 1.5 138.205 
42483 2.5 138.205 
42488 1 139.071 
42489 2 139.071 
42490 3 139.071 
42495 0.5 139.937 
42496 1.5 139.937 
42497 2.5 139.937 
42498 3.5 139.937 
ITEM: TIMESTEP
80000
ITEM: NUMBER OF ATOMS
36
ITEM: BOX BOUNDS ff fm pp
-4.1000000000000000e+01 4.1000000000000000e+01
0.0000000000000000e+00 2.0000000000000000e+02
-2.5000000000000000e-01 2.5000000000000000e-01
ITEM: ATOMS id x y 
42463 -1.48788e-15 132 
42464 -0.5 132.866 
42466 -1 133.732 
42467 -1.27013e-15 133.732 
42469 -1.5 134.598 
42470 -0.5 134.598 
42473 -2 135.464 
42474 -1 135.464 
42475 -1.05237e-15 135.464 
42478 -2.5 136.33 
42479 -1.5 136.33 
42480 -0.5 136.33 
42484 -3 137.196 
42485 -2 137.196 
42486 -1 137.196 
42487 -8.34616e-16 137.196 
42491 -3.5 138.062 
42492 -2.5 138.062 
42493 -1.5 138.062 
42494 -0.5 138.062 
42465 0.5 132.866 
42468 1 133.732 
42471 0.5 134.598 
42472 1.5 134.598 
42476 1 135.464 
42477 2 135.464 
42481 0.5 136.33 
42482 1.5 136.33 
42483 2.5 136.33 
42488 1 137.196 
42489 2 137.196 
42490 3 137.196 
42495 0.5 138.062 
42496 1.5 138.062 
42497 2.5 138.062 
42498 3.5 138.062 
ITEM: TIMESTEP
90000
ITEM: NUMBER OF ATOMS
36
ITEM: BOX BOUNDS ff fm pp
-4.1000000000000000e+01 4.1000000000000000e+01
0.0000000000000000e+00 2.0000000000000000e+02
-2.5000000000000000e-01 2.5000000000000000e-01
ITEM: ATOMS id x y 
42463 -1.74833e-15 129.875 
42464 -0.5 130.741 
42466 -1 131.607 
42467 -1.53048e-15 131.607 
42469 -1.5 132.473 
42470 -0.5 132.473 
42473 -2 133.339 
42474 -1 133.339 
42475 -1.31263e-15 133.339 
42478 -2.5 134.205 
42479 -1.5 134.205 
42480 -0.5 134.205 
42484 -3 135.071 
42485 -2 135.071 
42486 -1 135.071 
42487 -1.09478e-15 135.071 
42491 -3.5 135.937 
42492 -2.5 135.937 
42493 -1.5 135.937 
42494 -0.5 135.937 
42465 0.5 130.741 
42468 1 131.607 
42471 0.5 132.473 
42472 1.5 132.473 
42476 1 133.339 
42477 2 133.339 
42481 0.5 134.205 
42482 1.5 134.205 
42483 2.5 134.205 
42488 1 135.071 
42489 2 135.071 
42490 3 135.071 
42495 0.5 135.937 
42496 1.5 135.937 
42497 2.5 135.937 
42498 3.5 135.937 
ITEM: TIMESTEP
100000
ITEM: NUMBER OF ATOMS
36
ITEM: BOX BOUNDS ff fm pp
-4.1000000000000000e+01 4.1000000000000000e+01
0.0000000000000000e+00 2.0000000000000000e+02
-2.5000000000000000e-01 2.5000000000000000e-01
ITEM: ATOMS id x y 
42463 -2.03948e-15 127.5 
42464 -0.5 128.366 
42466 -1 129.232 
42467 -1.8215e-15 129.232 
42469 -1.5 130.098 
42470 -0.5 130.098 
42473 -2 130.964 
42474 -1 130.964 
42475 -1.60352e-15 130.964 
42478 -2.5 131.83 
42479 -1.5 131.83 
42480 -0.5 131.83 
42484 -3 132.696 
42485 -2 132.696 
42486 -1 132.696 
42487 -1.38553e-15 132.696 
42491 -3.5 133.562 
42492 -2.5 133.562 
42493 -1.5 133.562 
42494 -0.5 133.562 
42465 0.5 128.366 
42468 1 129.232 
42471 0.5 130.098 
42472 1.5 130.098 
42476 1 130.964 
42477 2 130.964 
42481 0.5 131.83 
42482 1.5 131.83 
42483 2.5 131.83 
42488 1 132.696 
42489 2 132.696 
42490 3 132.696 
42495 0.5 133.562 
42496 1.5 133.562 
42497 2.5 133.562 
42498 3.5 133.562 
ITEM: TIMESTEP
110000
ITEM: NUMBER OF ATOMS
36
ITEM: BOX BOUNDS ff fm pp
-4.1000000000000000e+01 4.1000000000000000e+01
0.0000000000000000e+00 2.0000000000000000e+02
-2.5000000000000000e-01 2.5000000000000000e-01
ITEM: ATOMS id x y 
42463 -2.3604e-15 124.875 
42464 -0.5 125.741 
42466 -1 126.607 
42467 -2.14265e-15 126.607 
42469 -1.5 127.473 
42470 -0.5 127.473 
42473 -2 128.339 
42474 -1 128.339 
42475 -1.9249e-15 128.339 
42478 -2.5 129.205 
42479 -1.5 129.205 
42480 -0.5 129.205 
42484 -3 130.071 
42485 -2 130.071 
42486 -1 130.071 
42487 -1.70715e-15 130.071 
42491 -3.5 130.937 
42492 -2.5 130.937 
42493 -1.5 130.937 
42494 -0.5 130.937 
42465 0.5 125.741 
42468 1 126.607 
42471 0.5 127.473 
42472 1.5 127.473 
42476 1 128.339 
42477 2 128.339 
42481 0.5 129.205 
42482 1.5 129.205 
42483 2.5 129.205 
42488 1 130.071 
42489 2 130.071 
42490 3 130.071 
42495 0.5 130.937 
42496 1.5 130.937 
42497 2.5 130.937 
42498 3.5 130.937 
ITEM: TIMESTEP
120000
ITEM: NUMBER OF ATOMS
36
ITEM: BOX BOUNDS ff fm pp
-4.1000000000000000e+01 4.1000000000000000e+01
0.0000000000000000e+00 2.0000000000000000e+02
-2.5000000000000000e-01 2.5000000000000000e-01
ITEM: ATOMS id x y 
42463 -2.70988e-15 122 
42464 -0.5 122.866 
42466 -1 123.732 
42467 -2.49324e-15 123.732 
42469 -1.5 124.598 
42470 -0.5 124.598 
42473 -2 125.464 
42474 -1 125.464 
42475 -2.2766e-15 125.464 
42478 -2.5 126.33 
42479 -1.5 126.33 
42480 -0.5 126.33 
42484 -3 127.196 
42485 -2 127.196 
42486 -1 127.196 
42487 -2.05995e-15 127.196 
42491 -3.5 128.062 
42492 -2.5 128.062 
42493 -1.5 128.062 
42494 -0.5 128.062 
42465 0.5 122.866 
42468 1 123.732 
42471 0.5 124.598 
42472 1.5 124.598 
42476 1 125.464 
42477 2 125.464 
42481 0.5 126.33 
42482 1.5 126.33 
42483 2.5 126.33 
42488 1 127.196 
42489 2 127.196 
42490 3 127.196 
42495 0.5 128.062 
42496 1.5 128.062 
42497 2.5 128.062 
42498 3.5 128.062 
ITEM: TIMESTEP
130000
ITEM: NUMBER OF ATOMS
36
ITEM: BOX BOUNDS ff fm pp
-4.1000000000000000e+01 4.1000000000000000e+01
0.0000000000000000e+00 2.0000000000000000e+02
-2.5000000000000000e-01 2.5000000000000000e-01
ITEM: ATOMS id x y 
42464 -0.495854 119.75 
42466 -0.996625 120.615 
42469 -1.4974 121.481 
42470 -0.497395 121.482 
42473 -1.99817 122.346 
42474 -0.998166 122.347 
42478 -2.49894 123.212 
42479 -1.49894 123.213 
42480 -0.498937 123.214 
42484 -2.99971 124.078 
42485 -1.99971 124.078 
42486 -0.999707 124.079 
42491 -3.50048 124.943 
42492 -2.50048 124.944 
42493 -1.50048 124.945 
42494 -0.500478 124.946 
42498 3.49952 124.949 
42497 2.49952 124.948 
42463 0.00491645 118.884 
42465 0.504146 119.751 
42467 0.00337502 120.616 
42468 1.00337 120.617 
42471 0.502604 121.483 
42472 1.5026 121.484 
42475 0.0018336 122.348 
42476 1.00183 122.349 
42477 2.00183 122.35 
42481 0.501063 123.215 
42482 1.50106 123.216 
42483 2.50106 123.216 
42487 0.00029217 124.08 
42488 1.00029 124.081 
42489 2.00029 124.082 
42490 3.00029 124.083 
42495 0.499521 124.947 
42496 1.49952 124.948 
ITEM: TIMESTEP
140000
ITEM: NUMBER OF ATOMS
36
ITEM: BOX BOUNDS ff fm pp
-4.1000000000000000e+01 4.1000000000000000e+01
0.0000000000000000e+00 2.0000000000000000e+02
-2.5000000000000000e-01 2.5000000000000000e-01
ITEM: ATOMS id x y 
42464 -0.495068 116.441 
42466 -0.996556 117.306 
42469 -1.49804 118.171 
42470 -0.498045 118.173 
42473 -1.99953 119.036 
42474 -0.999532 119.038 
42478 -2.50102 119.902 
42479 -1.50102 119.903 
42480 -0.501021 119.905 
42484 -3.00251 120.767 
42485 -2.00251 120.768 
42486 -1.00251 120.77 
42487 -0.00251001 120.772 
42491 -3.50399 121.632 
42492 -2.50399 121.634 
42493 -1.504 121.635 
42494 -0.503997 121.637 
42463 0.00641909 115.576 
42465 0.50493 116.443 
42467 0.00344272 117.308 
42468 1.00344 117.31 
42471 0.501954 118.175 
42472 1.50195 118.177 
42475 0.000466358 119.04 
42476 1.00046 119.042 
42477 2.00046 119.043 
42481 0.498977 119.907 
42482 1.49898 119.909 
42483 2.49897 119.91 
42488 0.997489 120.774 
42489 1.99749 120.775 
42490 2.99749 120.777 
42495 0.496001 121.639 
42496 1.496 121.641 
42497 2.496 121.642 
42498 3.496 121.644 
ITEM: TIMESTEP
150000
ITEM: NUMBER OF ATOMS
36
ITEM: BOX BOUNDS ff fm pp
-4.1000000000000000e+01 4.1000000000000000e+01
0.0000000000000000e+00 2.0000000000000000e+02
-2.5000000000000000e-01 2.5000000000000000e-01
ITEM: ATOMS id x y 
42463 -0.00244925 112.162 
42464 -0.50252 113.027 
42466 -1.00259 113.893 
42467 -0.00259082 113.894 
42469 -1.50266 114.759 
42470 -0.502662 114.759 
42473 -2.00273 115.625 
42474 -1.00273 115.625 
42475 -0.0027324 115.626 
42478 -2.5028 116.491 
42479 -1.5028 116.491 
42480 -0.502803 116.491 
42484 -3.00287 117.357 
42485 -2.00287 117.357 
42486 -1.00287 117.357 
42487 -0.00287397 117.358 
42491 -3.50294 118.223 
42492 -2.50294 118.223 
42493 -1.50294 118.223 
42494 -0.502945 118.223 
42465 0.49748 113.028 
42468 0.997409 113.894 
42471 0.497338 114.76 
42472 1.49734 114.76 
42476 0.997268 115.626 
42477 1.99727 115.626 
42481 0.497197 116.492 
42482 1.4972 116.492 
42483 2.4972 116.492 
42488 0.997126 117.358 
42489 1.99713 117.358 
42490 2.99713 117.358 
42495 0.497055 118.224 
42496 1.49706 118.224 
42497 2.49706 118.224 
42498 3.49706 118.224 
ITEM: TIMESTEP
160000
ITEM: NUMBER OF ATOMS
36
ITEM: BOX BOUNDS ff fm pp
-4.1000000000000000e+01 4.1000000000000000e+01
0.0000000000000000e+00 2.0000000000000000e+02
-2.5000000000000000e-01 2.5000000000000000e-01
ITEM: ATOMS id x y 
42464 -0.501271 109.552 
42466 -1.00428 110.416 
42467 -0.00428234 110.419 
42469 -1.50728 111.28 
42470 -0.507288 111.284 
42473 -2.01029 112.144 
42474 -1.01029 112.148 
42475 -0.010299 112.151 
42478 -2.51329 113.009 
42479 -1.5133 113.012 
42480 -0.513304 113.016 
42484 -3.0163 113.873 
42485 -2.0163 113.876 
42486 -1.01631 113.88 
42487 -0.0163157 113.883 
42491 -3.5193 114.737 
42492 -2.51931 114.741 
42493 -1.51932 114.744 
42494 -0.519321 114.748 
42463 0.00173436 108.687 
42465 0.498723 109.555 
42468 0.995712 110.423 
42471 0.492706 111.287 
42472 1.4927 111.291 
42476 0.989695 112.155 
42477 1.98969 112.158 
42481 0.48669 113.019 
42482 1.48668 113.023 
42483 2.48668 113.026 
42488 0.983678 113.887 
42489 1.98367 113.89 
42490 2.98367 113.894 
42495 0.480673 114.751 
42496 1.48067 114.755 
42497 2.48066 114.758 
42498 3.48065 114.762 
ITEM: TIMESTEP
170000
ITEM: NUMBER OF ATOMS
36
ITEM: BOX BOUNDS ff fm pp
-4.1000000000000000e+01 4.1000000000000000e+01
0.0000000000000000e+00 2.0000000000000000e+02
-2.5000000000000000e-01 2.5000000000000000e-01
ITEM: ATOMS id x y 
42464 -0.491807 106.015 
42466 -0.996969 106.878 
42469 -1.50213 107.741 
42470 -0.502148 107.747 
42473 -2.00729 108.604 
42474 -1.00731 108.61 
42475 -0.00732801 108.616 
42478 -2.51245 109.467 
42479 -1.51247 109.473 
42480 -0.51249 109.479 
42484 -3.01762 110.33 
42485 -2.01763 110.336 
42486 -1.01765 110.342 
42487 -0.0176694 110.348 
42491 -3.52278 111.193 
42492 -2.5228 111.199 
42493 -1.52281 111.205 
42494 -0.522831 111.211 
42463 0.0133547 105.152 
42465 0.508175 106.021 
42467 0.00301334 106.884 
42468 1.003 106.89 
42471 0.497834 107.753 
42472 1.49782 107.759 
42476 0.992654 108.622 
42477 1.99264 108.628 
42481 0.487492 109.485 
42482 1.48747 109.491 
42483 2.48746 109.497 
42488 0.982313 110.354 
42489 1.98229 110.36 
42490 2.98228 110.366 
42495 0.477151 111.217 
42496 1.47713 111.223 
42497 2.47712 111.229 
42498 3.4771 111.235 
ITEM: TIMESTEP
180000
ITEM: NUMBER OF ATOMS
36
ITEM: BOX BOUNDS ff fm pp
-4.1000000000000000e+01 4.1000000000000000e+01
0.0000000000000000e+00 2.0000000000000000e+02
-2.5000000000000000e-01 2.5000000000000000e-01
ITEM: ATOMS id x y 
42464 -0.49372 102.438 
42466 -0.997445 103.301 
42469 -1.50117 104.165 
42470 -0.50118 104.17 
42473 -2.0049 105.029 
42474 -1.0049 105.033 
42475 -0.00491391 105.038 
42478 -2.50862 105.893 
42479 -1.50863 105.897 
42480 -0.508639 105.902 
42484 -3.01235 106.757 
42485 -2.01235 106.761 
42486 -1.01236 106.765 
42487 -0.0123733 106.77 
42491 -3.51607 107.621 
42492 -2.51608 107.625 
42493 -1.51609 107.629 
42494 -0.516098 107.634 
42463 0.0100049 101.574 
42465 0.506271 102.442 
42467 0.00254548 103.306 
42468 1.00254 103.31 
42471 0.498811 104.174 
42472 1.4988 104.178 
42476 0.995077 105.042 
42477 1.99507 105.046 
42481 0.491352 105.906 
42482 1.49134 105.91 
42483 2.49133 105.915 
42488 0.987617 106.774 
42489 1.98761 106.778 
42490 2.9876 106.783 
42495 0.483892 107.638 
42496 1.48388 107.642 
42497 2.48387 107.647 
42498 3.48386 107.651 
ITEM: TIMESTEP
190000
ITEM: NUMBER OF ATOMS
36
ITEM: BOX BOUNDS ff fm pp
-4.1000000000000000e+01 4.1000000000000000e+01
0.0000000000000000e+00 2.0000000000000000e+02
-2.5000000000000000e-01 2.5000000000000000e-01
ITEM: ATOMS id x y 
42464 -0.501214 98.7869 
42466 -1.00173 99.6526 
42467 -0.00172671 99.6532 
42469 -1.50224 100.518 
42470 -0.502239 100.519 
42473 -2.00275 101.384 
42474 -1.00275 101.385 
42475 -0.00275241 101.385 
42478 -2.50326 102.25 
42479 -1.50326 102.25 
42480 -0.503265 102.251 
42484 -3.00378 103.115 
42485 -2.00378 103.116 
42486 -1.00378 103.117 
42487 -0.00377811 103.117 
42491 -3.50429 103.981 
42492 -2.50429 103.982 
42493 -1.50429 103.982 
42494 -0.504291 103.983 
42463 -0.000701009 97.9212 
42465 0.498786 98.7875 
42468 0.998273 99.6538 
42471 0.49776 100.519 
42472 1.49776 100.52 
42476 0.997247 101.386 
42477 1.99725 101.386 
42481 0.496735 102.251 
42482 1.49673 102.252 
42483 2.49673 102.253 
42488 0.996222 103.118 
42489 1.99622 103.118 
42490 2.99622 103.119 
42495 0.495709 103.983 
42496 1.49571 103.984 
42497 2.49571 103.985 
42498 3.49571 103.985 
ITEM: TIMESTEP
200000
ITEM: NUMBER OF ATOMS
36
ITEM: BOX BOUNDS ff fm pp
-4.1000000000000000e+01 4.1000000000000000e+01
0.0000000000000000e+00 2.0000000000000000e+02
-2.5000000000000000e-01 2.5000000000000000e-01
ITEM: ATOMS id x y 
42463 -0.00621268 94.2444 
42464 -0.506917 95.11 
42466 -1.00762 95.9756 
42467 -0.0076219 95.9764 
42469 -1.50833 96.8412 
42470 -0.508326 96.842 
42473 -2.00903 97.7068 
42474 -1.00903 97.7076 
42475 -0.00903112 97.7084 
42478 -2.50973 98.5724 
42479 -1.50974 98.5732 
42480 -0.509736 98.574 
42484 -3.01044 99.438 
42485 -2.01044 99.4388 
42486 -1.01044 99.4396 
42487 -0.0104403 99.4404 
42491 -3.51114 100.304 
42492 -2.51114 100.304 
42493 -1.51114 100.305 
42494 -0.511145 100.306 
42465 0.493083 95.1108 
42468 0.992378 95.9772 
42471 0.491673 96.8428 
42472 1.49167 96.8436 
42476 0.990969 97.7092 
42477 1.99097 97.71 
42481 0.490264 98.5748 
42482 1.49026 98.5756 
42483 2.49026 98.5764 
42488 0.989559 99.4412 
42489 1.98956 99.442 
42490 2.98956 99.4428 
42495 0.488855 100.307 
42496 1.48885 100.308 
42497 2.48885 100.308 
42498 3.48885 100.309 
ITEM: TIMESTEP
210000
ITEM: NUMBER OF ATOMS
36
ITEM: BOX BOUNDS ff fm pp
-4.1000000000000000e+01 4.1000000000000000e+01
0.0000000000000000e+00 2.0000000000000000e+02
-2.5000000000000000e-01 2.5000000000000000e-01
ITEM: ATOMS id x y 
42464 -0.473455 91.4529 
42466 -0.979512 92.3154 
42469 -1.48557 93.1779 
42470 -0.485594 93.1849 
42473 -1.99163 94.0404 
42474 -0.991651 94.0474 
42478 -2.49768 94.9028 
42479 -1.49771 94.9098 
42480 -0.497733 94.9169 
42484 -3.00374 95.7653 
42485 -2.00377 95.7723 
42486 -1.00379 95.7793 
42487 -0.00381486 95.7863 
42491 -3.5098 96.6278 
42492 -2.50982 96.6348 
42493 -1.50985 96.6418 
42494 -0.509872 96.6488 
42463 0.0326023 90.5905 
42465 0.526521 91.46 
42467 0.0204633 92.3224 
42468 1.02044 92.3294 
42471 0.514381 93.1919 
42472 1.51436 93.1989 
42475 0.00832421 94.0544 
42476 1.0083 94.0614 
42477 2.00828 94.0684 
42481 0.502242 94.9239 
42482 1.50222 94.9309 
42483 2.50219 94.9379 
42488 0.996161 95.7933 
42489 1.99614 95.8004 
42490 2.99611 95.8074 
42495 0.490103 96.6558 
42496 1.49008 96.6628 
42497 2.49005 96.6698 
42498 3.49003 96.6769 
ITEM: TIMESTEP
220000
ITEM: NUMBER OF ATOMS
36
ITEM: BOX BOUNDS ff fm pp
-4.1000000000000000e+01 4.1000000000000000e+01
0.0000000000000000e+00 2.0000000000000000e+02
-2.5000000000000000e-01 2.5000000000000000e-01
ITEM: ATOMS id x y 
42464 -0.436353 87.8221 
42466 -0.946118 88.6824 
42469 -1.45588 89.5427 
42470 -0.455946 89.554 
42473 -1.96565 90.403 
42474 -0.965711 90.4143 
42478 -2.47541 91.2633 
42479 -1.47548 91.2746 
42480 -0.47554 91.2859 
42484 -2.98518 92.1236 
42485 -1.98524 92.1349 
42486 -0.985305 92.1462 
42491 -3.49494 92.9839 
42492 -2.49501 92.9952 
42493 -1.49507 93.0065 
42494 -0.495133 93.0178 
42463 0.0734119 86.9618 
42465 0.563583 87.8334 
42467 0.0538184 88.6937 
42468 1.05375 88.705 
42471 0.54399 89.5653 
42472 1.54393 89.5766 
42475 0.0342249 90.4256 
42476 1.03416 90.4369 
42477 2.0341 90.4482 
42481 0.524396 91.2972 
42482 1.52433 91.3085 
42483 2.52427 91.3199 
42487 0.0146314 92.1575 
42488 1.01457 92.1688 
42489 2.0145 92.1801 
42490 3.01444 92.1915 
42495 0.504803 93.0291 
42496 1.50474 93.0404 
42497 2.50467 93.0517 
42498 3.50461 93.0631 
ITEM: TIMESTEP
230000
ITEM: NUMBER OF ATOMS
36
ITEM: BOX BOUNDS ff fm pp
-4.1000000000000000e+01 4.1000000000000000e+01
0.0000000000000000e+00 2.0000000000000000e+02
-2.5000000000000000e-01 2.5000000000000000e-01
ITEM: ATOMS id x y 
42464 -0.397119 84.2201 
42466 -0.910479 85.0783 
42469 -1.42384 85.9364 
42470 -0.423959 85.9519 
42473 -1.9372 86.7946 
42474 -0.937319 86.8101 
42478 -2.45056 87.6527 
42479 -1.45068 87.6682 
42480 -0.450799 87.6837 
42484 -2.96392 88.5109 
42485 -1.96404 88.5264 
42486 -0.964159 88.5419 
42491 -3.47728 89.369 
42492 -2.4774 89.3845 
42493 -1.47752 89.4 
42494 -0.477638 89.4155 
42463 0.116241 83.362 
42465 0.602761 84.2356 
42467 0.0894009 85.0938 
42468 1.08928 85.1093 
42471 0.575921 85.9674 
42472 1.5758 85.9829 
42475 0.0625611 86.8256 
42476 1.06244 86.8411 
42477 2.06232 86.8565 
42481 0.549081 87.6992 
42482 1.54896 87.7147 
42483 2.54884 87.7302 
42487 0.0357214 88.5573 
42488 1.0356 88.5728 
42489 2.03548 88.5883 
42490 3.03536 88.6038 
42495 0.522241 89.431 
42496 1.52212 89.4465 
42497 2.522 89.462 
42498 3.52188 89.4775 
ITEM: TIMESTEP
240000
ITEM: NUMBER OF ATOMS
36
ITEM: BOX BOUNDS ff fm pp
-4.1000000000000000e+01 4.1000000000000000e+01
0.0000000000000000e+00 2.0000000000000000e+02
-2.5000000000000000e-01 2.5000000000000000e-01
ITEM: ATOMS id x y 
42464 -0.384158 80.6422 
42466 -0.896793 81.5008 
42469 -1.40943 82.3593 
42470 -0.409536 82.374 
42473 -1.92206 83.2179 
42474 -0.922171 83.2326 
42478 -2.4347 84.0765 
42479 -1.43481 84.0912 
42480 -0.434914 84.1058 
42484 -2.94733 84.9351 
42485 -1.94744 84.9497 
42486 -0.947549 84.9644 
42491 -3.45997 85.7937 
42492 -2.46008 85.8083 
42493 -1.46018 85.823 
42494 -0.460292 85.8376 
42463 0.128478 79.7836 
42465 0.615735 80.6568 
42467 0.1031 81.5154 
42468 1.10299 81.5301 
42471 0.590357 82.3886 
42472 1.59025 82.4033 
42475 0.0777216 83.2472 
42476 1.07761 83.2619 
42477 2.07751 83.2765 
42481 0.564979 84.1205 
42482 1.56487 84.1351 
42483 2.56476 84.1498 
42487 0.0523436 84.979 
42488 1.05224 84.9937 
42489 2.05213 85.0083 
42490 3.05202 85.023 
42495 0.539601 85.8523 
42496 1.53949 85.8669 
42497 2.53939 85.8816 
42498 3.53928 85.8962 
ITEM: TIMESTEP
250000
ITEM: NUMBER OF ATOMS
36
ITEM: BOX BOUNDS ff fm pp
-4.1000000000000000e+01 4.1000000000000000e+01
0.0000000000000000e+00 2.0000000000000000e+02
-2.5000000000000000e-01 2.5000000000000000e-01
ITEM: ATOMS id x y 
42464 -0.405429 77.0646 
42466 -0.909969 77.9279 
42469 -1.41451 78.7913 
42470 -0.414522 78.7965 
42473 -1.91905 79.6547 
42474 -0.919062 79.6599 
42478 -2.42359 80.518 
42479 -1.4236 80.5233 
42480 -0.423616 80.5285 
42484 -2.92813 81.3814 
42485 -1.92814 81.3866 
42486 -0.928156 81.3919 
42491 -3.43267 82.2447 
42492 -2.43268 82.25 
42493 -1.4327 82.2552 
42494 -0.432709 82.2605 
42463 0.0991112 76.2012 
42465 0.594558 77.0698 
42467 0.0900176 77.9332 
42468 1.09 77.9384 
42471 0.585464 78.8018 
42472 1.58545 78.807 
42475 0.080924 79.6652 
42476 1.08091 79.6704 
42477 2.0809 79.6757 
42481 0.57637 80.5338 
42482 1.57636 80.539 
42483 2.57634 80.5443 
42487 0.0718304 81.3971 
42488 1.07182 81.4024 
42489 2.0718 81.4076 
42490 3.07179 81.4129 
42495 0.567277 82.2657 
42496 1.56726 82.271 
42497 2.56725 82.2762 
42498 3.56724 82.2815 
ITEM: TIMESTEP
260000
ITEM: NUMBER OF ATOMS
36
ITEM: BOX BOUNDS ff fm pp
-4.1000000000000000e+01 4.1000000000000000e+01
0.0000000000000000e+00 2.0000000000000000e+02
-2.5000000000000000e-01 2.5000000000000000e-01
ITEM: ATOMS id x y 
42464 -0.431521 73.5126 
42466 -0.928268 74.3805 
42469 -1.42501 75.2483 
42470 -0.425021 75.2446 
42473 -1.92176 76.1162 
42474 -0.921767 76.1125 
42478 -2.41851 76.9841 
42479 -1.41851 76.9803 
42480 -0.41852 76.9766 
42484 -2.91525 77.852 
42485 -1.91526 77.8482 
42486 -0.915267 77.8445 
42491 -3.412 78.7198 
42492 -2.41201 78.7161 
42493 -1.41201 78.7123 
42494 -0.41202 78.7086 
42463 0.0652248 72.6447 
42465 0.568472 73.5089 
42467 0.0717253 74.3767 
42468 1.07172 74.373 
42471 0.574972 75.2408 
42472 1.57496 75.2371 
42475 0.0782258 76.1087 
42476 1.07822 76.105 
42477 2.07821 76.1012 
42481 0.581472 76.9728 
42482 1.58147 76.9691 
42483 2.58146 76.9653 
42487 0.0847262 77.8407 
42488 1.08472 77.8369 
42489 2.08471 77.8332 
42490 3.08471 77.8294 
42495 0.587973 78.7048 
42496 1.58797 78.7011 
42497 2.58796 78.6973 
42498 3.58795 78.6936 
ITEM: TIMESTEP
270000
ITEM: NUMBER OF ATOMS
36
ITEM: BOX BOUNDS ff fm pp
-4.1000000000000000e+01 4.1000000000000000e+01
0.0000000000000000e+00 2.0000000000000000e+02
-2.5000000000000000e-01 2.5000000000000000e-01
ITEM: ATOMS id x y 
42464 -0.437748 69.9847 
42466 -0.932499 70.8537 
42469 -1.42725 71.7228 
42470 -0.427269 71.7167 
42473 -1.922 72.5918 
42474 -0.922021 72.5857 
42478 -2.41675 73.4608 
42479 -1.41677 73.4547 
42480 -0.41679 73.4487 
42484 -2.9115 74.3298 
42485 -1.91152 74.3237 
42486 -0.911542 74.3177 
42491 -3.40626 75.1988 
42492 -2.40627 75.1927 
42493 -1.40629 75.1867 
42494 -0.406311 75.1806 
42463 0.0570033 69.1157 
42465 0.562234 69.9787 
42467 0.0674822 70.8477 
42468 1.06746 70.8416 
42471 0.572713 71.7107 
42472 1.57269 71.7046 
42475 0.0779612 72.5797 
42476 1.07794 72.5736 
42477 2.07792 72.5676 
42481 0.583191 73.4426 
42482 1.58317 73.4366 
42483 2.58315 73.4305 
42487 0.0884401 74.3116 
42488 1.08842 74.3056 
42489 2.0884 74.2995 
42490 3.08839 74.2935 
42495 0.59367 75.1746 
42496 1.59365 75.1685 
42497 2.59363 75.1625 
42498 3.59362 75.1564 
ITEM: TIMESTEP
280000
ITEM: NUMBER OF ATOMS
36
ITEM: BOX BOUNDS ff fm pp
-4.1000000000000000e+01 4.1000000000000000e+01
0.0000000000000000e+00 2.0000000000000000e+02
-2.5000000000000000e-01 2.5000000000000000e-01
ITEM: ATOMS id x y 
42464 -0.438595 66.5188 
42466 -0.930623 67.3894 
42469 -1.42265 68.2599 
42470 -0.422694 68.2508 
42473 -1.91468 69.1305 
42474 -0.914723 69.1213 
42478 -2.40671 70.0011 
42479 -1.40675 69.9919 
42480 -0.406794 69.9827 
42484 -2.89874 70.8716 
42485 -1.89878 70.8624 
42486 -0.898823 70.8532 
42491 -3.39077 71.7422 
42492 -2.39081 71.733 
42493 -1.39085 71.7238 
42494 -0.390894 71.7146 
42463 0.0534344 65.6483 
42465 0.561363 66.5097 
42467 0.0693344 67.3802 
42468 1.06929 67.371 
42471 0.577263 68.2416 
42472 1.57722 68.2324 
42475 0.0852345 69.1121 
42476 1.08519 69.103 
42477 2.08515 69.0938 
42482 1.59312 69.9643 
42483 2.59308 69.9552 
42481 0.593163 69.9735 
42487 0.101135 70.8441 
42488 1.10109 70.8349 
42489 2.10105 70.8257 
42490 3.10101 70.8165 
42495 0.609064 71.7054 
42496 1.60902 71.6963 
42497 2.60898 71.6871 
42498 3.60894 71.6779 
ITEM: TIMESTEP
290000
ITEM: NUMBER OF ATOMS
36
ITEM: BOX BOUNDS ff fm pp
-4.1000000000000000e+01 4.1000000000000000e+01
0.0000000000000000e+00 2.0000000000000000e+02
-2.5000000000000000e-01 2.5000000000000000e-01
ITEM: ATOMS id x y 
42464 -0.430166 63.0936 
42466 -0.920823 63.9649 
42469 -1.41148 64.8362 
42470 -0.411539 64.8255 
42473 -1.90214 65.7075 
42474 -0.902197 65.6968 