ITEM: TIMESTEP
0
ITEM: NUMBER OF ATOMS
5
ITEM: BOX BOUNDS ff fm pp
-4.1000000000000000e+01 4.1000000000000000e+01
0.0000000000000000e+00 2.0000000000000000e+02
-2.5000000000000000e-01 2.5000000000000000e-01
ITEM: ATOMS id x y 
42463 -5.08 126.52 
42464 -2.54 126.52 
42465 0 126.52 
42466 2.54 126.52 
42467 5.08 126.52 
ITEM: TIMESTEP
10000
ITEM: NUMBER OF ATOMS
5
ITEM: BOX BOUNDS ff fm pp
-4.1000000000000000e+01 4.1000000000000000e+01
0.0000000000000000e+00 2.0000000000000000e+02
-2.5000000000000000e-01 2.5000000000000000e-01
ITEM: ATOMS id x y 
42463 -5.08 126.02 
42464 -2.54 126.02 
42465 -6.12323e-17 126.02 
42466 2.54 126.02 
42467 5.08 126.02 
ITEM: TIMESTEP
20000
ITEM: NUMBER OF ATOMS
5
ITEM: BOX BOUNDS ff fm pp
-4.1000000000000000e+01 4.1000000000000000e+01
0.0000000000000000e+00 2.0000000000000000e+02
-2.5000000000000000e-01 2.5000000000000000e-01
ITEM: ATOMS id x y 
42463 -5.08 124.52 
42464 -2.54 124.52 
42465 -2.44929e-16 124.52 
42466 2.54 124.52 
42467 5.08 124.52 
ITEM: TIMESTEP
30000
ITEM: NUMBER OF ATOMS
5
ITEM: BOX BOUNDS ff fm pp
-4.1000000000000000e+01 4.1000000000000000e+01
0.0000000000000000e+00 2.0000000000000000e+02
-2.5000000000000000e-01 2.5000000000000000e-01
ITEM: ATOMS id x y 
42463 -5.08 122.02 
42464 -2.54 122.02 
42465 -5.51085e-16 122.02 
42466 2.54 122.02 
42467 5.08 122.02 
ITEM: TIMESTEP
40000
ITEM: NUMBER OF ATOMS
5
ITEM: BOX BOUNDS ff fm pp
-4.1000000000000000e+01 4.1000000000000000e+01
0.0000000000000000e+00 2.0000000000000000e+02
-2.5000000000000000e-01 2.5000000000000000e-01
ITEM: ATOMS id x y 
42463 -5.1174 118.627 
42464 -2.57101 118.651 
42465 0.0174188 118.68 
42466 2.55952 118.652 
42467 5.09914 118.651 
ITEM: TIMESTEP
50000
ITEM: NUMBER OF ATOMS
5
ITEM: BOX BOUNDS ff fm pp
-4.1000000000000000e+01 4.1000000000000000e+01
0.0000000000000000e+00 2.0000000000000000e+02
-2.5000000000000000e-01 2.5000000000000000e-01
ITEM: ATOMS id x y 
42463 -5.2601 114.496 
42464 -2.6429 114.53 
42465 0.0701622 114.666 
42466 2.63553 114.605 
42467 5.20639 114.542 
ITEM: TIMESTEP
60000
ITEM: NUMBER OF ATOMS
5
ITEM: BOX BOUNDS ff fm pp
-4.1000000000000000e+01 4.1000000000000000e+01
0.0000000000000000e+00 2.0000000000000000e+02
-2.5000000000000000e-01 2.5000000000000000e-01
ITEM: ATOMS id x y 
42463 -5.5074 109.598 
42464 -2.75462 109.641 
42465 0.102445 109.955 
42466 2.76991 109.876 
42467 5.39957 109.679 
ITEM: TIMESTEP
70000
ITEM: NUMBER OF ATOMS
5
ITEM: BOX BOUNDS ff fm pp
-4.1000000000000000e+01 4.1000000000000000e+01
0.0000000000000000e+00 2.0000000000000000e+02
-2.5000000000000000e-01 2.5000000000000000e-01
ITEM: ATOMS id x y 
42463 -5.90072 104.135 
42464 -2.90789 104.206 
42465 0.144674 104.674 
42466 3.00711 104.542 
42467 5.73754 104.214 
ITEM: TIMESTEP
80000
ITEM: NUMBER OF ATOMS
5
ITEM: BOX BOUNDS ff fm pp
-4.1000000000000000e+01 4.1000000000000000e+01
0.0000000000000000e+00 2.0000000000000000e+02
-2.5000000000000000e-01 2.5000000000000000e-01
ITEM: ATOMS id x y 
42463 -6.51032 98.2306 
42464 -3.11748 98.4057 
42465 0.22096 99.0739 
42466 3.31992 98.6993 
42467 6.30626 98.3009 
ITEM: TIMESTEP
90000
ITEM: NUMBER OF ATOMS
5
ITEM: BOX BOUNDS ff fm pp
-4.1000000000000000e+01 4.1000000000000000e+01
0.0000000000000000e+00 2.0000000000000000e+02
-2.5000000000000000e-01 2.5000000000000000e-01
ITEM: ATOMS id x y 
42463 -7.43362 92.0192 
42464 -3.38454 92.3978 
42467 7.15464 92.0124 
42465 0.314913 93.164 
42466 3.77141 92.5307 
ITEM: TIMESTEP
100000
ITEM: NUMBER OF ATOMS
5
ITEM: BOX BOUNDS ff fm pp
-4.1000000000000000e+01 4.1000000000000000e+01
0.0000000000000000e+00 2.0000000000000000e+02
-2.5000000000000000e-01 2.5000000000000000e-01
ITEM: ATOMS id x y 
42463 -8.59031 85.6145 
42464 -3.79301 86.3464 
42467 8.25367 85.4477 
42466 4.46893 86.3413 
42465 0.379237 87.0407 
ITEM: TIMESTEP
110000
ITEM: NUMBER OF ATOMS
5
ITEM: BOX BOUNDS ff fm pp
-4.1000000000000000e+01 4.1000000000000000e+01
0.0000000000000000e+00 2.0000000000000000e+02
-2.5000000000000000e-01 2.5000000000000000e-01
ITEM: ATOMS id x y 
42463 -9.99754 78.9781 
42464 -4.4078 80.1908 
42467 9.65694 78.684 
42465 0.387208 80.9136 
42466 5.37788 80.1518 
ITEM: TIMESTEP
120000
ITEM: NUMBER OF ATOMS
5
ITEM: BOX BOUNDS ff fm pp
-4.1000000000000000e+01 4.1000000000000000e+01
0.0000000000000000e+00 2.0000000000000000e+02
-2.5000000000000000e-01 2.5000000000000000e-01
ITEM: ATOMS id x y 
42463 -11.6093 72.1332 
42464 -5.26908 73.9418 
42467 11.3417 71.7339 
42466 6.61415 73.9039 
42465 0.373087 74.8305 
ITEM: TIMESTEP
130000
ITEM: NUMBER OF ATOMS
5
ITEM: BOX BOUNDS ff fm pp
-4.1000000000000000e+01 4.1000000000000000e+01
0.0000000000000000e+00 2.0000000000000000e+02
-2.5000000000000000e-01 2.5000000000000000e-01
ITEM: ATOMS id x y 
42463 -13.372 65.0374 
42464 -6.31635 67.5899 
42467 13.2946 64.5471 
42466 8.02378 67.4238 
42465 0.406765 68.6048 
ITEM: TIMESTEP
140000
ITEM: NUMBER OF ATOMS
5
ITEM: BOX BOUNDS ff fm pp
-4.1000000000000000e+01 4.1000000000000000e+01
0.0000000000000000e+00 2.0000000000000000e+02
-2.5000000000000000e-01 2.5000000000000000e-01
ITEM: ATOMS id x y 
42463 -15.2116 57.8162 
42464 -7.55632 61.0737 
42467 15.4202 57.355 
42466 9.5816 60.6874 
42465 0.503692 62.2924 
ITEM: TIMESTEP
150000
ITEM: NUMBER OF ATOMS
5
ITEM: BOX BOUNDS ff fm pp
-4.1000000000000000e+01 4.1000000000000000e+01
0.0000000000000000e+00 2.0000000000000000e+02
-2.5000000000000000e-01 2.5000000000000000e-01
ITEM: ATOMS id x y 
42463 -17.0496 50.6906 
42464 -8.92861 54.381 
42467 17.5627 50.478 
42466 11.2482 53.645 
42465 0.67645 55.7802 
ITEM: TIMESTEP
160000
ITEM: NUMBER OF ATOMS
5
ITEM: BOX BOUNDS ff fm pp
-4.1000000000000000e+01 4.1000000000000000e+01
0.0000000000000000e+00 2.0000000000000000e+02
-2.5000000000000000e-01 2.5000000000000000e-01
ITEM: ATOMS id x y 
42463 -18.7753 43.7109 
42464 -10.3715 47.3708 
42467 19.6465 44.0021 
42466 12.9837 46.4153 
42465 0.826359 48.9322 
ITEM: TIMESTEP
170000
ITEM: NUMBER OF ATOMS
5
ITEM: BOX BOUNDS ff fm pp
-4.1000000000000000e+01 4.1000000000000000e+01
0.0000000000000000e+00 2.0000000000000000e+02
-2.5000000000000000e-01 2.5000000000000000e-01
ITEM: ATOMS id x y 
42463 -20.3979 37.0856 
42464 -11.825 40.1431 
42467 21.5828 38.0043 
42466 14.723 39.0975 
42465 0.973942 41.758 
ITEM: TIMESTEP
180000
ITEM: NUMBER OF ATOMS
5
ITEM: BOX BOUNDS ff fm pp
-4.1000000000000000e+01 4.1000000000000000e+01
0.0000000000000000e+00 2.0000000000000000e+02
-2.5000000000000000e-01 2.5000000000000000e-01
ITEM: ATOMS id x y 
42463 -21.6365 31.2046 
42464 -13.2073 32.7954 
42466 16.3573 31.859 
42467 23.2331 32.5883 
42465 1.11473 34.2915 
ITEM: TIMESTEP
190000
ITEM: NUMBER OF ATOMS
5
ITEM: BOX BOUNDS ff fm pp
-4.1000000000000000e+01 4.1000000000000000e+01
0.0000000000000000e+00 2.0000000000000000e+02
-2.5000000000000000e-01 2.5000000000000000e-01
ITEM: ATOMS id x y 
42463 -22.4193 26.5256 
42464 -14.3532 25.8346 
42466 17.7028 25.248 
42465 1.28324 27.0143 
42467 24.2969 27.9258 
ITEM: TIMESTEP
200000
ITEM: NUMBER OF ATOMS
5
ITEM: BOX BOUNDS ff fm pp
-4.1000000000000000e+01 4.1000000000000000e+01
0.0000000000000000e+00 2.0000000000000000e+02
-2.5000000000000000e-01 2.5000000000000000e-01
ITEM: ATOMS id x y 
42464 -15.1628 20.2127 
42463 -22.5017 23.3226 
42466 18.6484 20.4122 
42465 1.37147 20.8689 
42467 24.716 24.1594 
ITEM: TIMESTEP
210000
ITEM: NUMBER OF ATOMS
5
ITEM: BOX BOUNDS ff fm pp
-4.1000000000000000e+01 4.1000000000000000e+01
0.0000000000000000e+00 2.0000000000000000e+02
-2.5000000000000000e-01 2.5000000000000000e-01
ITEM: ATOMS id x y 
42464 -15.6515 15.4518 
42463 -22.206 20.3926 
42465 1.41748 15.3388 
42466 19.1371 16.5294 
42467 24.7594 20.6268 
ITEM: TIMESTEP
220000
ITEM: NUMBER OF ATOMS
5
ITEM: BOX BOUNDS ff fm pp
-4.1000000000000000e+01 4.1000000000000000e+01
0.0000000000000000e+00 2.0000000000000000e+02
-2.5000000000000000e-01 2.5000000000000000e-01
ITEM: ATOMS id x y 
42464 -15.8411 11.0861 
42463 -21.7778 17.1381 
42465 1.50141 10.0824 
42466 19.292 13.0013 
42467 24.5254 16.8444 
ITEM: TIMESTEP
230000
ITEM: NUMBER OF ATOMS
5
ITEM: BOX BOUNDS ff fm pp
-4.1000000000000000e+01 4.1000000000000000e+01
0.0000000000000000e+00 2.0000000000000000e+02
-2.5000000000000000e-01 2.5000000000000000e-01
ITEM: ATOMS id x y 
42464 -15.7952 7.78365 
42463 -21.1639 13.6368 
42465 1.59302 5.97862 
42466 19.0893 10.3418 
42467 24.0404 13.0213 
ITEM: TIMESTEP
240000
ITEM: NUMBER OF ATOMS
5
ITEM: BOX BOUNDS ff fm pp
-4.1000000000000000e+01 4.1000000000000000e+01
0.0000000000000000e+00 2.0000000000000000e+02
-2.5000000000000000e-01 2.5000000000000000e-01
ITEM: ATOMS id x y 
42464 -15.27 6.12163 
42463 -20.4664 10.1806 
42465 1.64527 3.51055 
42466 18.6742 8.59937 
42467 23.3373 9.51052 
ITEM: TIMESTEP
250000
ITEM: NUMBER OF ATOMS
5
ITEM: BOX BOUNDS ff fm pp
-4.1000000000000000e+01 4.1000000000000000e+01
0.0000000000000000e+00 2.0000000000000000e+02
-2.5000000000000000e-01 2.5000000000000000e-01
ITEM: ATOMS id x y 
42464 -14.7376 5.27353 
42463 -19.8581 7.03843 
42465 1.48348 2.57616 
42466 18.2588 7.74997 
42467 22.7654 6.7373 
ITEM: TIMESTEP
260000
ITEM: NUMBER OF ATOMS
5
ITEM: BOX BOUNDS ff fm pp
-4.1000000000000000e+01 4.1000000000000000e+01
0.0000000000000000e+00 2.0000000000000000e+02
-2.5000000000000000e-01 2.5000000000000000e-01
ITEM: ATOMS id x y 
42463 -19.4381 4.23997 
42464 -14.3497 4.57541 
42465 1.12655 2.49143 
42467 22.6311 4.51562 
42466 17.9579 7.10083 
ITEM: TIMESTEP
270000
ITEM: NUMBER OF ATOMS
5
ITEM: BOX BOUNDS ff fm pp
-4.1000000000000000e+01 4.1000000000000000e+01
0.0000000000000000e+00 2.0000000000000000e+02
-2.5000000000000000e-01 2.5000000000000000e-01
ITEM: ATOMS id x y 
42463 -19.508 2.38841 
42464 -14.2879 4.22112 
42465 1.12417 2.48253 
42467 22.5555 2.9934 
42466 17.9282 6.22539 
ITEM: TIMESTEP
280000
ITEM: NUMBER OF ATOMS
5
ITEM: BOX BOUNDS ff fm pp
-4.1000000000000000e+01 4.1000000000000000e+01
0.0000000000000000e+00 2.0000000000000000e+02
-2.5000000000000000e-01 2.5000000000000000e-01
ITEM: ATOMS id x y 
42463 -19.7949 3.08212 
42464 -14.6333 3.82537 
42465 1.09235 2.48501 
42467 22.5851 2.4117 
42466 18.16 5.21857 
ITEM: TIMESTEP
290000
ITEM: NUMBER OF ATOMS
5
ITEM: BOX BOUNDS ff fm pp
-4.1000000000000000e+01 4.1000000000000000e+01
0.0000000000000000e+00 2.0000000000000000e+02
-2.5000000000000000e-01 2.5000000000000000e-01
ITEM: ATOMS id x y 
42463 -20.1128 2.87575 
42464 -14.9163 3.13898 
42465 1.09664 2.49271 
42467 22.7313 2.18594 
42466 18.4484 4.57334 
ITEM: TIMESTEP
300000
ITEM: NUMBER OF ATOMS
5
ITEM: BOX BOUNDS ff fm pp
-4.1000000000000000e+01 4.1000000000000000e+01
0.0000000000000000e+00 2.0000000000000000e+02
-2.5000000000000000e-01 2.5000000000000000e-01
ITEM: ATOMS id x y 
42463 -20.1745 2.86671 
42464 -14.9363 2.86594 
42465 1.09679 2.49462 
42467 22.7625 2.15232 
42466 18.514 4.36438 
ITEM: TIMESTEP
310000
ITEM: NUMBER OF ATOMS
5
ITEM: BOX BOUNDS ff fm pp
-4.1000000000000000e+01 4.1000000000000000e+01
0.0000000000000000e+00 2.0000000000000000e+02
-2.5000000000000000e-01 2.5000000000000000e-01
ITEM: ATOMS id x y 
42463 -20.1178 2.837 
42464 -14.8656 2.81643 
42465 1.11369 2.491 
42467 22.7586 2.14446 
42466 18.5187 4.3732 
ITEM: TIMESTEP
320000
ITEM: NUMBER OF ATOMS
5
ITEM: BOX BOUNDS ff fm pp
-4.1000000000000000e+01 4.1000000000000000e+01
0.0000000000000000e+00 2.0000000000000000e+02
-2.5000000000000000e-01 2.5000000000000000e-01
ITEM: ATOMS id x y 
42463 -20.0807 2.71516 
42464 -14.8841 2.82464 
42465 1.10957 2.49207 
42467 22.771 2.14736 
42466 18.5349 4.37389 
