ITEM: TIMESTEP
0
ITEM: NUMBER OF ATOMS
15
ITEM: BOX BOUNDS ff fm pp
-4.1000000000000000e+01 4.1000000000000000e+01
0.0000000000000000e+00 2.0000000000000000e+02
-2.5000000000000000e-01 2.5000000000000000e-01
ITEM: ATOMS id type x y vx vy fx fy omegaz tqz c_101[1] c_101[2] c_101[4] c_102 
42464 2 -0.5 140.866 0 0 -0.0515966 -157.169 0 0 -0.0386974 -0.116085 0.0223413 4 
42466 2 -1 141.732 0 0 -0.0515966 -157.169 0 0 -0.0386974 -0.116085 0.0223413 4 
42469 2 -1.5 142.598 0 0 -0.0515966 -157.169 0 0 -0.0386974 -0.116085 0.0223413 4 
42470 2 -0.5 142.598 0 0 -1.92367e-14 -157.08 0 0 -0.0515966 -0.154781 -0 6 
42473 2 -2 143.464 0 0 -0.0515966 -156.99 0 0 -0.0128991 -0.0386951 0.0223413 2 
42474 2 -1 143.464 0 0 -1.92367e-14 -156.901 0 0 -0.0257983 -0.0773903 -0 4 
42463 2 0 140 0 0 -1.92367e-14 -157.258 0 0 -0.0257983 -0.0773903 -0 2 
42465 2 0.5 140.866 0 0 0.0515966 -157.169 0 0 -0.0386974 -0.116085 -0.0223413 4 
42467 2 0 141.732 0 0 -1.92367e-14 -157.08 0 0 -0.0515966 -0.154781 -0 6 
42468 2 1 141.732 0 0 0.0515966 -157.169 0 0 -0.0386974 -0.116085 -0.0223413 4 
42471 2 0.5 142.598 0 0 -1.92367e-14 -157.08 0 0 -0.0515966 -0.154781 -0 6 
42472 2 1.5 142.598 0 0 0.0515966 -157.169 0 0 -0.0386974 -0.116085 -0.0223413 4 
42475 2 0 143.464 0 0 -1.92367e-14 -156.901 0 0 -0.0257983 -0.0773903 -0 4 
42476 2 1 143.464 0 0 -1.92367e-14 -156.901 0 0 -0.0257983 -0.0773903 -0 4 
42477 2 2 143.464 0 0 0.0515966 -156.99 0 0 -0.0128991 -0.0386951 -0.0223413 2 
ITEM: TIMESTEP
1000
ITEM: NUMBER OF ATOMS
15
ITEM: BOX BOUNDS ff fm pp
-4.1000000000000000e+01 4.1000000000000000e+01
0.0000000000000000e+00 2.0000000000000000e+02
-2.5000000000000000e-01 2.5000000000000000e-01
ITEM: ATOMS id type x y vx vy fx fy omegaz tqz c_101[1] c_101[2] c_101[4] c_102 
42464 2 -0.5 140.865 -7.55466e-18 -0.05 -0.0515966 -157.169 -9.9147e-19 1.08039e-15 -0.0386974 -0.116085 0.0223413 4 
42466 2 -1 141.731 -6.69605e-18 -0.05 -0.0515966 -157.169 -9.9147e-19 1.08039e-15 -0.0386974 -0.116085 0.0223413 4 
42469 2 -1.5 142.597 -5.83743e-18 -0.05 -0.0515966 -157.169 -9.9147e-19 1.08039e-15 -0.0386974 -0.116085 0.0223413 4 
42470 2 -0.5 142.597 -5.83743e-18 -0.05 -1.92228e-14 -157.08 -9.9147e-19 1.44052e-15 -0.0515966 -0.154781 1.38778e-15 6 
42473 2 -2 143.463 -4.97882e-18 -0.05 -0.0515966 -156.99 -9.9147e-19 3.60131e-16 -0.0128991 -0.0386951 0.0223413 2 
42474 2 -1 143.463 -4.97882e-18 -0.05 -1.91743e-14 -156.901 -9.9147e-19 7.20262e-16 -0.0257983 -0.0773903 6.93889e-16 4 
42463 2 -2.10335e-19 139.999 -8.41327e-18 -0.05 -1.93061e-14 -157.258 -9.9147e-19 7.20262e-16 -0.0257983 -0.0773903 6.9042e-16 2 
42465 2 0.5 140.865 -7.55466e-18 -0.05 0.0515966 -157.169 -9.9147e-19 1.08039e-15 -0.0386974 -0.116085 -0.0223413 4 
42467 2 -1.67404e-19 141.731 -6.69605e-18 -0.05 -1.92506e-14 -157.08 -9.9147e-19 1.44052e-15 -0.0515966 -0.154781 1.38778e-15 6 
42468 2 1 141.731 -6.69605e-18 -0.05 0.0515966 -157.169 -9.9147e-19 1.08039e-15 -0.0386974 -0.116085 -0.0223413 4 
42471 2 0.5 142.597 -5.83743e-18 -0.05 -1.92367e-14 -157.08 -9.9147e-19 1.44052e-15 -0.0515966 -0.154781 1.38778e-15 6 
42472 2 1.5 142.597 -5.83743e-18 -0.05 0.0515966 -157.169 -9.9147e-19 1.08039e-15 -0.0386974 -0.116085 -0.0223413 4 
42475 2 -1.24474e-19 143.463 -4.97882e-18 -0.05 -1.91812e-14 -156.901 -9.9147e-19 7.20262e-16 -0.0257983 -0.0773903 6.97359e-16 4 
42476 2 1 143.463 -4.97882e-18 -0.05 -1.91743e-14 -156.901 -9.9147e-19 7.20262e-16 -0.0257983 -0.0773903 6.93889e-16 4 
42477 2 2 143.463 -4.97882e-18 -0.05 0.0515966 -156.99 -9.9147e-19 3.60131e-16 -0.0128991 -0.0386951 -0.0223413 2 
ITEM: TIMESTEP
2000
ITEM: NUMBER OF ATOMS
15
ITEM: BOX BOUNDS ff fm pp
-4.1000000000000000e+01 4.1000000000000000e+01
0.0000000000000000e+00 2.0000000000000000e+02
-2.5000000000000000e-01 2.5000000000000000e-01
ITEM: ATOMS id type x y vx vy fx fy omegaz tqz c_101[1] c_101[2] c_101[4] c_102 
42464 2 -0.5 140.861 -1.51092e-17 -0.1 -0.0515966 -157.169 -1.98294e-18 2.26839e-15 -0.0386974 -0.116085 0.0223413 4 
42466 2 -1 141.727 -1.33919e-17 -0.1 -0.0515966 -157.169 -1.98294e-18 2.26839e-15 -0.0386974 -0.116085 0.0223413 4 
42469 2 -1.5 142.593 -1.16747e-17 -0.1 -0.0515966 -157.169 -1.98294e-18 2.26839e-15 -0.0386974 -0.116085 0.0223413 4 
42470 2 -0.5 142.593 -1.16747e-17 -0.1 -1.92228e-14 -157.08 -1.98294e-18 3.02452e-15 -0.0515966 -0.154781 2.79984e-15 6 
42473 2 -2 143.459 -9.95749e-18 -0.1 -0.0515966 -156.99 -1.98294e-18 7.56129e-16 -0.0128991 -0.0386951 0.0223413 2 
42474 2 -1 143.459 -9.95749e-18 -0.1 -1.898e-14 -156.901 -1.98294e-18 1.51226e-15 -0.0257983 -0.0773903 1.39819e-15 4 
42463 2 -8.41326e-19 139.995 -1.68264e-17 -0.1 -1.95004e-14 -157.258 -1.98294e-18 1.51226e-15 -0.0257983 -0.0773903 1.39819e-15 2 
42465 2 0.5 140.861 -1.51092e-17 -0.1 0.0515966 -157.169 -1.98294e-18 2.26839e-15 -0.0386974 -0.116085 -0.0223413 4 
42467 2 -6.69603e-19 141.727 -1.33919e-17 -0.1 -1.92506e-14 -157.08 -1.98294e-18 3.02452e-15 -0.0515966 -0.154781 2.79984e-15 6 
42468 2 1 141.727 -1.33919e-17 -0.1 0.0515966 -157.169 -1.98294e-18 2.26839e-15 -0.0386974 -0.116085 -0.0223413 4 
42471 2 0.5 142.593 -1.16747e-17 -0.1 -1.92367e-14 -157.08 -1.98294e-18 3.02452e-15 -0.0515966 -0.154781 2.79984e-15 6 
42472 2 1.5 142.593 -1.16747e-17 -0.1 0.0515966 -157.169 -1.98294e-18 2.26839e-15 -0.0386974 -0.116085 -0.0223413 4 
42475 2 -4.97881e-19 143.459 -9.95749e-18 -0.1 -1.89869e-14 -156.901 -1.98294e-18 1.51226e-15 -0.0257983 -0.0773903 1.40166e-15 4 
42476 2 1 143.459 -9.95749e-18 -0.1 -1.898e-14 -156.901 -1.98294e-18 1.51226e-15 -0.0257983 -0.0773903 1.39819e-15 4 
42477 2 2 143.459 -9.95749e-18 -0.1 0.0515966 -156.99 -1.98294e-18 7.56129e-16 -0.0128991 -0.0386951 -0.0223413 2 
ITEM: TIMESTEP
3000
ITEM: NUMBER OF ATOMS
15
ITEM: BOX BOUNDS ff fm pp
-4.1000000000000000e+01 4.1000000000000000e+01
0.0000000000000000e+00 2.0000000000000000e+02
-2.5000000000000000e-01 2.5000000000000000e-01
ITEM: ATOMS id type x y vx vy fx fy omegaz tqz c_101[1] c_101[2] c_101[4] c_102 
42464 2 -0.5 140.855 -2.26636e-17 -0.15 -0.0515966 -157.169 -2.97441e-18 3.56347e-15 -0.0386974 -0.116085 0.0223413 4 
42466 2 -1 141.721 -2.00878e-17 -0.15 -0.0515966 -157.169 -2.97441e-18 3.56347e-15 -0.0386974 -0.116085 0.0223413 4 
42469 2 -1.5 142.587 -1.75119e-17 -0.15 -0.0515966 -157.169 -2.97441e-18 3.56347e-15 -0.0386974 -0.116085 0.0223413 4 
42470 2 -0.5 142.587 -1.75119e-17 -0.15 -1.92228e-14 -157.08 -2.97441e-18 4.75129e-15 -0.0515966 -0.154781 4.27436e-15 6 
42473 2 -2 143.453 -1.49361e-17 -0.15 -0.0515966 -156.99 -2.97441e-18 1.18782e-15 -0.0128991 -0.0386951 0.0223413 2 
42474 2 -1 143.453 -1.49361e-17 -0.15 -1.86885e-14 -156.901 -2.97441e-18 2.37565e-15 -0.0257983 -0.0773903 2.13718e-15 4 
42463 2 -1.89297e-18 139.989 -2.52394e-17 -0.15 -1.97918e-14 -157.258 -2.97441e-18 2.37565e-15 -0.0257983 -0.0773903 2.13371e-15 2 
42465 2 0.5 140.855 -2.26636e-17 -0.15 0.0515966 -157.169 -2.97441e-18 3.56347e-15 -0.0386974 -0.116085 -0.0223413 4 
42467 2 -1.5066e-18 141.721 -2.00878e-17 -0.15 -1.92506e-14 -157.08 -2.97441e-18 4.75129e-15 -0.0515966 -0.154781 4.27436e-15 6 
42468 2 1 141.721 -2.00878e-17 -0.15 0.0515966 -157.169 -2.97441e-18 3.56347e-15 -0.0386974 -0.116085 -0.0223413 4 
42471 2 0.5 142.587 -1.75119e-17 -0.15 -1.92367e-14 -157.08 -2.97441e-18 4.75129e-15 -0.0515966 -0.154781 4.27436e-15 6 
42472 2 1.5 142.587 -1.75119e-17 -0.15 0.0515966 -157.169 -2.97441e-18 3.56347e-15 -0.0386974 -0.116085 -0.0223413 4 
42475 2 -1.12022e-18 143.453 -1.49361e-17 -0.15 -1.86955e-14 -156.901 -2.97441e-18 2.37565e-15 -0.0257983 -0.0773903 2.14065e-15 4 
42476 2 1 143.453 -1.49361e-17 -0.15 -1.86885e-14 -156.901 -2.97441e-18 2.37565e-15 -0.0257983 -0.0773903 2.13718e-15 4 
42477 2 2 143.453 -1.49361e-17 -0.15 0.0515966 -156.99 -2.97441e-18 1.18782e-15 -0.0128991 -0.0386951 -0.0223413 2 
ITEM: TIMESTEP
4000
ITEM: NUMBER OF ATOMS
15
ITEM: BOX BOUNDS ff fm pp
-4.1000000000000000e+01 4.1000000000000000e+01
0.0000000000000000e+00 2.0000000000000000e+02
-2.5000000000000000e-01 2.5000000000000000e-01
ITEM: ATOMS id type x y vx vy fx fy omegaz tqz c_101[1] c_101[2] c_101[4] c_102 
42464 2 -0.5 140.846 -3.02181e-17 -0.2 -0.0515966 -157.169 -3.96588e-18 4.96564e-15 -0.0386974 -0.116085 0.0223413 4 
42466 2 -1 141.712 -2.67836e-17 -0.2 -0.0515966 -157.169 -3.96588e-18 4.96564e-15 -0.0386974 -0.116085 0.0223413 4 
42469 2 -1.5 142.578 -2.33491e-17 -0.2 -0.0515966 -157.169 -3.96588e-18 4.96564e-15 -0.0386974 -0.116085 0.0223413 4 
42470 2 -0.5 142.578 -2.33491e-17 -0.2 -1.92228e-14 -157.08 -3.96588e-18 6.62085e-15 -0.0515966 -0.154781 5.76969e-15 6 
42473 2 -2 143.444 -1.99147e-17 -0.2 -0.0515966 -156.99 -3.96588e-18 1.65521e-15 -0.0128991 -0.0386951 0.0223413 2 
42474 2 -1 143.444 -1.99147e-17 -0.2 -1.82583e-14 -156.901 -3.96588e-18 3.31043e-15 -0.0257983 -0.0773903 2.88311e-15 4 
42463 2 -3.36527e-18 139.98 -3.36525e-17 -0.2 -2.0222e-14 -157.258 -3.96588e-18 3.31043e-15 -0.0257983 -0.0773903 2.88311e-15 2 
42465 2 0.5 140.846 -3.02181e-17 -0.2 0.0515966 -157.169 -3.96588e-18 4.96564e-15 -0.0386974 -0.116085 -0.0223413 4 
42467 2 -2.67838e-18 141.712 -2.67836e-17 -0.2 -1.92506e-14 -157.08 -3.96588e-18 6.62085e-15 -0.0515966 -0.154781 5.76969e-15 6 
42468 2 1 141.712 -2.67836e-17 -0.2 0.0515966 -157.169 -3.96588e-18 4.96564e-15 -0.0386974 -0.116085 -0.0223413 4 
42471 2 0.5 142.578 -2.33491e-17 -0.2 -1.92367e-14 -157.08 -3.96588e-18 6.62085e-15 -0.0515966 -0.154781 5.76969e-15 6 
42472 2 1.5 142.578 -2.33491e-17 -0.2 0.0515966 -157.169 -3.96588e-18 4.96564e-15 -0.0386974 -0.116085 -0.0223413 4 
42475 2 -1.99149e-18 143.444 -1.99147e-17 -0.2 -1.82653e-14 -156.901 -3.96588e-18 3.31043e-15 -0.0257983 -0.0773903 2.88658e-15 4 
42476 2 1 143.444 -1.99147e-17 -0.2 -1.82583e-14 -156.901 -3.96588e-18 3.31043e-15 -0.0257983 -0.0773903 2.88311e-15 4 
42477 2 2 143.444 -1.99147e-17 -0.2 0.0515966 -156.99 -3.96588e-18 1.65521e-15 -0.0128991 -0.0386951 -0.0223413 2 
ITEM: TIMESTEP
5000
ITEM: NUMBER OF ATOMS
15
ITEM: BOX BOUNDS ff fm pp
-4.1000000000000000e+01 4.1000000000000000e+01
0.0000000000000000e+00 2.0000000000000000e+02
-2.5000000000000000e-01 2.5000000000000000e-01
ITEM: ATOMS id type x y vx vy fx fy omegaz tqz c_101[1] c_101[2] c_101[4] c_102 
42464 2 -0.5 140.835 -3.77725e-17 -0.25 -0.0515966 -157.169 -4.95735e-18 6.4749e-15 -0.0386974 -0.116085 0.0223413 4 
42466 2 -1 141.701 -3.34795e-17 -0.25 -0.0515966 -157.169 -4.95735e-18 6.4749e-15 -0.0386974 -0.116085 0.0223413 4 
42469 2 -1.5 142.567 -2.91864e-17 -0.25 -0.0515966 -157.169 -4.95735e-18 6.4749e-15 -0.0386974 -0.116085 0.0223413 4 
42470 2 -0.5 142.567 -2.91864e-17 -0.25 -1.92228e-14 -157.08 -4.95735e-18 8.6332e-15 -0.0515966 -0.154781 7.29972e-15 6 
42473 2 -2 143.433 -2.48933e-17 -0.25 -0.0515966 -156.99 -4.95735e-18 2.1583e-15 -0.0128991 -0.0386951 0.0223413 2 
42474 2 -1 143.433 -2.48933e-17 -0.25 -1.76893e-14 -156.901 -4.95735e-18 4.3166e-15 -0.0257983 -0.0773903 3.64986e-15 4 
42463 2 -5.25822e-18 139.969 -4.20656e-17 -0.25 -2.0791e-14 -157.258 -4.95735e-18 4.3166e-15 -0.0257983 -0.0773903 3.64639e-15 2 
42465 2 0.5 140.835 -3.77725e-17 -0.25 0.0515966 -157.169 -4.95735e-18 6.4749e-15 -0.0386974 -0.116085 -0.0223413 4 
42467 2 -4.18496e-18 141.701 -3.34795e-17 -0.25 -1.92506e-14 -157.08 -4.95735e-18 8.6332e-15 -0.0515966 -0.154781 7.29972e-15 6 
42468 2 1 141.701 -3.34795e-17 -0.25 0.0515966 -157.169 -4.95735e-18 6.4749e-15 -0.0386974 -0.116085 -0.0223413 4 
42471 2 0.5 142.567 -2.91864e-17 -0.25 -1.92367e-14 -157.08 -4.95735e-18 8.6332e-15 -0.0515966 -0.154781 7.29972e-15 6 
42472 2 1.5 142.567 -2.91864e-17 -0.25 0.0515966 -157.169 -4.95735e-18 6.4749e-15 -0.0386974 -0.116085 -0.0223413 4 
42475 2 -3.11169e-18 143.433 -2.48933e-17 -0.25 -1.76963e-14 -156.901 -4.95735e-18 4.3166e-15 -0.0257983 -0.0773903 3.65333e-15 4 
42476 2 1 143.433 -2.48933e-17 -0.25 -1.76893e-14 -156.901 -4.95735e-18 4.3166e-15 -0.0257983 -0.0773903 3.64986e-15 4 
42477 2 2 143.433 -2.48933e-17 -0.25 0.0515966 -156.99 -4.95735e-18 2.1583e-15 -0.0128991 -0.0386951 -0.0223413 2 
ITEM: TIMESTEP
6000
ITEM: NUMBER OF ATOMS
15
ITEM: BOX BOUNDS ff fm pp
-4.1000000000000000e+01 4.1000000000000000e+01
0.0000000000000000e+00 2.0000000000000000e+02
-2.5000000000000000e-01 2.5000000000000000e-01
ITEM: ATOMS id type x y vx vy fx fy omegaz tqz c_101[1] c_101[2] c_101[4] c_102 
42464 2 -0.5 140.821 -4.5327e-17 -0.3 -0.0515966 -157.169 -5.94882e-18 8.09124e-15 -0.0386974 -0.116085 0.0223413 4 
42466 2 -1 141.687 -4.01753e-17 -0.3 -0.0515966 -157.169 -5.94882e-18 8.09124e-15 -0.0386974 -0.116085 0.0223413 4 
42469 2 -1.5 142.553 -3.50237e-17 -0.3 -0.0515966 -157.169 -5.94882e-18 8.09124e-15 -0.0386974 -0.116085 0.0223413 4 
42470 2 -0.5 142.553 -3.50237e-17 -0.3 -1.92228e-14 -157.08 -5.94882e-18 1.07883e-14 -0.0515966 -0.154781 8.85403e-15 6 
42473 2 -2 143.419 -2.9872e-17 -0.3 -0.0515966 -156.99 -5.94882e-18 2.69708e-15 -0.0128991 -0.0386951 0.0223413 2 
42474 2 -1 143.419 -2.9872e-17 -0.3 -1.70093e-14 -156.901 -5.94882e-18 5.39416e-15 -0.0257983 -0.0773903 4.42701e-15 4 
42463 2 -7.57183e-18 139.955 -5.04787e-17 -0.3 -2.1471e-14 -157.258 -5.94882e-18 5.39416e-15 -0.0257983 -0.0773903 4.42354e-15 2 
42465 2 0.5 140.821 -4.5327e-17 -0.3 0.0515966 -157.169 -5.94882e-18 8.09124e-15 -0.0386974 -0.116085 -0.0223413 4 
42467 2 -6.02633e-18 141.687 -4.01753e-17 -0.3 -1.92506e-14 -157.08 -5.94882e-18 1.07883e-14 -0.0515966 -0.154781 8.85403e-15 6 
42468 2 1 141.687 -4.01753e-17 -0.3 0.0515966 -157.169 -5.94882e-18 8.09124e-15 -0.0386974 -0.116085 -0.0223413 4 
42471 2 0.5 142.553 -3.50237e-17 -0.3 -1.92367e-14 -157.08 -5.94882e-18 1.07883e-14 -0.0515966 -0.154781 8.85403e-15 6 
42472 2 1.5 142.553 -3.50237e-17 -0.3 0.0515966 -157.169 -5.94882e-18 8.09124e-15 -0.0386974 -0.116085 -0.0223413 4 
42475 2 -4.48082e-18 143.419 -2.9872e-17 -0.3 -1.70163e-14 -156.901 -5.94882e-18 5.39416e-15 -0.0257983 -0.0773903 4.43048e-15 4 
42476 2 1 143.419 -2.9872e-17 -0.3 -1.70093e-14 -156.901 -5.94882e-18 5.39416e-15 -0.0257983 -0.0773903 4.42701e-15 4 
42477 2 2 143.419 -2.9872e-17 -0.3 0.0515966 -156.99 -5.94882e-18 2.69708e-15 -0.0128991 -0.0386951 -0.0223413 2 
ITEM: TIMESTEP
7000
ITEM: NUMBER OF ATOMS
15
ITEM: BOX BOUNDS ff fm pp
-4.1000000000000000e+01 4.1000000000000000e+01
0.0000000000000000e+00 2.0000000000000000e+02
-2.5000000000000000e-01 2.5000000000000000e-01
ITEM: ATOMS id type x y vx vy fx fy omegaz tqz c_101[1] c_101[2] c_101[4] c_102 
42464 2 -0.5 140.805 -5.28815e-17 -0.35 -0.0515966 -157.169 -6.94029e-18 9.81468e-15 -0.0386974 -0.116085 0.0223413 4 
42466 2 -1 141.671 -4.68712e-17 -0.35 -0.0515966 -157.169 -6.94029e-18 9.81468e-15 -0.0386974 -0.116085 0.0223413 4 
42469 2 -1.5 142.537 -4.08609e-17 -0.35 -0.0515966 -157.169 -6.94029e-18 9.81468e-15 -0.0386974 -0.116085 0.0223413 4 
42470 2 -0.5 142.537 -4.08609e-17 -0.35 -1.92228e-14 -157.08 -6.94029e-18 1.30862e-14 -0.0515966 -0.154781 1.04569e-14 6 
42473 2 -2 143.403 -3.48506e-17 -0.35 -0.0515966 -156.99 -6.94029e-18 3.27156e-15 -0.0128991 -0.0386951 0.0223413 2 
42474 2 -1 143.403 -3.48506e-17 -0.35 -1.61905e-14 -156.901 -6.94029e-18 6.54312e-15 -0.0257983 -0.0773903 5.22846e-15 4 
42463 2 -1.03061e-17 139.939 -5.88918e-17 -0.35 -2.22898e-14 -157.258 -6.94029e-18 6.54312e-15 -0.0257983 -0.0773903 5.22499e-15 2 
42465 2 0.5 140.805 -5.28815e-17 -0.35 0.0515966 -157.169 -6.94029e-18 9.81468e-15 -0.0386974 -0.116085 -0.0223413 4 
42467 2 -8.20249e-18 141.671 -4.68712e-17 -0.35 -1.92506e-14 -157.08 -6.94029e-18 1.30862e-14 -0.0515966 -0.154781 1.04569e-14 6 
42468 2 1 141.671 -4.68712e-17 -0.35 0.0515966 -157.169 -6.94029e-18 9.81468e-15 -0.0386974 -0.116085 -0.0223413 4 
42471 2 0.5 142.537 -4.08609e-17 -0.35 -1.92367e-14 -157.08 -6.94029e-18 1.30862e-14 -0.0515966 -0.154781 1.04569e-14 6 
42472 2 1.5 142.537 -4.08609e-17 -0.35 0.0515966 -157.169 -6.94029e-18 9.81468e-15 -0.0386974 -0.116085 -0.0223413 4 
42475 2 -6.09889e-18 143.403 -3.48506e-17 -0.35 -1.61975e-14 -156.901 -6.94029e-18 6.54312e-15 -0.0257983 -0.0773903 5.23193e-15 4 
42476 2 1 143.403 -3.48506e-17 -0.35 -1.61905e-14 -156.901 -6.94029e-18 6.54312e-15 -0.0257983 -0.0773903 5.22846e-15 4 
42477 2 2 143.403 -3.48506e-17 -0.35 0.0515966 -156.99 -6.94029e-18 3.27156e-15 -0.0128991 -0.0386951 -0.0223413 2 
ITEM: TIMESTEP
8000
ITEM: NUMBER OF ATOMS
15
ITEM: BOX BOUNDS ff fm pp
-4.1000000000000000e+01 4.1000000000000000e+01
0.0000000000000000e+00 2.0000000000000000e+02
-2.5000000000000000e-01 2.5000000000000000e-01
ITEM: ATOMS id type x y vx vy fx fy omegaz tqz c_101[1] c_101[2] c_101[4] c_102 
42464 2 -0.5 140.786 -6.12996e-17 -0.4 -0.0515966 -157.169 -8.53011e-18 1.22842e-14 -0.0386974 -0.116085 0.0223413 4 
42466 2 -1 141.652 -5.39125e-17 -0.4 -0.0515966 -157.169 -8.53011e-18 1.22842e-14 -0.0386974 -0.116085 0.0223413 4 
42469 2 -1.5 142.518 -4.65254e-17 -0.4 -0.0515966 -157.169 -8.53011e-18 1.22842e-14 -0.0386974 -0.116085 0.0223413 4 
42470 2 -0.5 142.518 -4.65254e-17 -0.4 -1.92228e-14 -157.08 -8.53011e-18 1.63789e-14 -0.0515966 -0.154781 1.29202e-14 6 
42473 2 -2 143.384 -3.91384e-17 -0.4 -0.0515966 -156.99 -8.53011e-18 4.09473e-15 -0.0128991 -0.0386951 0.0223413 2 
42474 2 -1 143.384 -3.91384e-17 -0.4 -1.52468e-14 -156.901 -8.53011e-18 8.18947e-15 -0.0257983 -0.0773903 6.46011e-15 4 
42463 2 -1.34819e-17 139.92 -6.86867e-17 -0.4 -2.32335e-14 -157.258 -8.53011e-18 8.18947e-15 -0.0257983 -0.0773903 6.45664e-15 2 
42465 2 0.5 140.786 -6.12996e-17 -0.4 0.0515966 -157.169 -8.53011e-18 1.22842e-14 -0.0386974 -0.116085 -0.0223413 4 
42467 2 -1.07187e-17 141.652 -5.39125e-17 -0.4 -1.92506e-14 -157.08 -8.53011e-18 1.63789e-14 -0.0515966 -0.154781 1.29202e-14 6 
42468 2 1 141.652 -5.39125e-17 -0.4 0.0515966 -157.169 -8.53011e-18 1.22842e-14 -0.0386974 -0.116085 -0.0223413 4 
42471 2 0.5 142.518 -4.65254e-17 -0.4 -1.92367e-14 -157.08 -8.53011e-18 1.63789e-14 -0.0515966 -0.154781 1.29202e-14 6 
42472 2 1.5 142.518 -4.65254e-17 -0.4 0.0515966 -157.169 -8.53011e-18 1.22842e-14 -0.0386974 -0.116085 -0.0223413 4 
42475 2 -7.95546e-18 143.384 -3.91384e-17 -0.4 -1.52538e-14 -156.901 -8.53011e-18 8.18947e-15 -0.0257983 -0.0773903 6.46358e-15 4 
42476 2 1 143.384 -3.91384e-17 -0.4 -1.52468e-14 -156.901 -8.53011e-18 8.18947e-15 -0.0257983 -0.0773903 6.46011e-15 4 
42477 2 2 143.384 -3.91384e-17 -0.4 0.0515966 -156.99 -8.53011e-18 4.09473e-15 -0.0128991 -0.0386951 -0.0223413 2 
ITEM: TIMESTEP
9000
ITEM: NUMBER OF ATOMS
15
ITEM: BOX BOUNDS ff fm pp
-4.1000000000000000e+01 4.1000000000000000e+01
0.0000000000000000e+00 2.0000000000000000e+02
-2.5000000000000000e-01 2.5000000000000000e-01
ITEM: ATOMS id type x y vx vy fx fy omegaz tqz c_101[1] c_101[2] c_101[4] c_102 
42463 2 -1.71838e-17 139.899 -7.93894e-17 -0.45 -2.44131e-14 -157.258 -1.05131e-17 1.02449e-14 -0.0257983 -0.0773903 8.00401e-15 2 
42464 2 -0.5 140.765 -7.02851e-17 -0.45 -0.0515966 -157.169 -1.05131e-17 1.53673e-14 -0.0386974 -0.116085 0.0223413 4 
42466 2 -1 141.631 -6.11808e-17 -0.45 -0.0515966 -157.169 -1.05131e-17 1.53673e-14 -0.0386974 -0.116085 0.0223413 4 
42467 2 -1.3596e-17 141.631 -6.11808e-17 -0.45 -1.92506e-14 -157.08 -1.05131e-17 2.04898e-14 -0.0515966 -0.154781 1.6015e-14 6 
42469 2 -1.5 142.497 -5.20765e-17 -0.45 -0.0515966 -157.169 -1.05131e-17 1.53673e-14 -0.0386974 -0.116085 0.0223413 4 
42470 2 -0.5 142.497 -5.20765e-17 -0.45 -1.92228e-14 -157.08 -1.05131e-17 2.04898e-14 -0.0515966 -0.154781 1.6015e-14 6 
42473 2 -2 143.363 -4.29722e-17 -0.45 -0.0515966 -156.99 -1.05131e-17 5.12245e-15 -0.0128991 -0.0386951 0.0223413 2 
42474 2 -1 143.363 -4.29722e-17 -0.45 -1.40672e-14 -156.901 -1.05131e-17 1.02449e-14 -0.0257983 -0.0773903 8.00748e-15 4 
42475 2 -1.00082e-17 143.363 -4.29722e-17 -0.45 -1.40742e-14 -156.901 -1.05131e-17 1.02449e-14 -0.0257983 -0.0773903 8.01095e-15 4 
42465 2 0.5 140.765 -7.02851e-17 -0.45 0.0515966 -157.169 -1.05131e-17 1.53673e-14 -0.0386974 -0.116085 -0.0223413 4 
42468 2 1 141.631 -6.11808e-17 -0.45 0.0515966 -157.169 -1.05131e-17 1.53673e-14 -0.0386974 -0.116085 -0.0223413 4 
42471 2 0.5 142.497 -5.20765e-17 -0.45 -1.92367e-14 -157.08 -1.05131e-17 2.04898e-14 -0.0515966 -0.154781 1.6015e-14 6 
42472 2 1.5 142.497 -5.20765e-17 -0.45 0.0515966 -157.169 -1.05131e-17 1.53673e-14 -0.0386974 -0.116085 -0.0223413 4 
42476 2 1 143.363 -4.29722e-17 -0.45 -1.40672e-14 -156.901 -1.05131e-17 1.02449e-14 -0.0257983 -0.0773903 8.00748e-15 4 
42477 2 2 143.363 -4.29722e-17 -0.45 0.0515966 -156.99 -1.05131e-17 5.12245e-15 -0.0128991 -0.0386951 -0.0223413 2 
ITEM: TIMESTEP
10000
ITEM: NUMBER OF ATOMS
15
ITEM: BOX BOUNDS ff fm pp
-4.1000000000000000e+01 4.1000000000000000e+01
0.0000000000000000e+00 2.0000000000000000e+02
-2.5000000000000000e-01 2.5000000000000000e-01
ITEM: ATOMS id type x y vx vy fx fy omegaz tqz c_101[1] c_101[2] c_101[4] c_102 
42463 2 -2.14208e-17 139.875 -9.00921e-17 -0.5 -2.58425e-14 -157.258 -1.2496e-17 1.24431e-14 -0.0257983 -0.0773903 9.57914e-15 2 
42464 2 -0.5 140.741 -7.92706e-17 -0.5 -0.0515966 -157.169 -1.2496e-17 1.86647e-14 -0.0386974 -0.116085 0.0223413 4 
42466 2 -1 141.607 -6.8449e-17 -0.5 -0.0515966 -157.169 -1.2496e-17 1.86647e-14 -0.0386974 -0.116085 0.0223413 4 
42467 2 -1.68367e-17 141.607 -6.8449e-17 -0.5 -1.92506e-14 -157.08 -1.2496e-17 2.48862e-14 -0.0515966 -0.154781 1.91652e-14 6 
42469 2 -1.5 142.473 -5.76275e-17 -0.5 -0.0515966 -157.169 -1.2496e-17 1.86647e-14 -0.0386974 -0.116085 0.0223413 4 
42470 2 -0.5 142.473 -5.76275e-17 -0.5 -1.92228e-14 -157.08 -1.2496e-17 2.48862e-14 -0.0515966 -0.154781 1.91652e-14 6 
42473 2 -2 143.339 -4.6806e-17 -0.5 -0.0515966 -156.99 -1.2496e-17 6.22155e-15 -0.0128991 -0.0386951 0.0223413 2 
42474 2 -1 143.339 -4.6806e-17 -0.5 -1.26378e-14 -156.901 -1.2496e-17 1.24431e-14 -0.0257983 -0.0773903 9.58261e-15 4 
42475 2 -1.22527e-17 143.339 -4.6806e-17 -0.5 -1.26448e-14 -156.901 -1.2496e-17 1.24431e-14 -0.0257983 -0.0773903 9.58608e-15 4 
42465 2 0.5 140.741 -7.92706e-17 -0.5 0.0515966 -157.169 -1.2496e-17 1.86647e-14 -0.0386974 -0.116085 -0.0223413 4 
42468 2 1 141.607 -6.8449e-17 -0.5 0.0515966 -157.169 -1.2496e-17 1.86647e-14 -0.0386974 -0.116085 -0.0223413 4 
42471 2 0.5 142.473 -5.76275e-17 -0.5 -1.92367e-14 -157.08 -1.2496e-17 2.48862e-14 -0.0515966 -0.154781 1.91652e-14 6 
42472 2 1.5 142.473 -5.76275e-17 -0.5 0.0515966 -157.169 -1.2496e-17 1.86647e-14 -0.0386974 -0.116085 -0.0223413 4 
42476 2 1 143.339 -4.6806e-17 -0.5 -1.26378e-14 -156.901 -1.2496e-17 1.24431e-14 -0.0257983 -0.0773903 9.58261e-15 4 
42477 2 2 143.339 -4.6806e-17 -0.5 0.0515966 -156.99 -1.2496e-17 6.22155e-15 -0.0128991 -0.0386951 -0.0223413 2 
ITEM: TIMESTEP
11000
ITEM: NUMBER OF ATOMS
15
ITEM: BOX BOUNDS ff fm pp
-4.1000000000000000e+01 4.1000000000000000e+01
0.0000000000000000e+00 2.0000000000000000e+02
-2.5000000000000000e-01 2.5000000000000000e-01
ITEM: ATOMS id type x y vx vy fx fy omegaz tqz c_101[1] c_101[2] c_101[4] c_102 
42463 2 -2.62293e-17 139.849 -1.02619e-16 -0.55 -2.75634e-14 -157.258 -1.52686e-17 1.53519e-14 -0.0257983 -0.0773903 1.17441e-14 2 
42464 2 -0.5 140.715 -8.93959e-17 -0.55 -0.0515966 -157.169 -1.52686e-17 2.30279e-14 -0.0386974 -0.116085 0.0223413 4 
42466 2 -1 141.581 -7.61732e-17 -0.55 -0.0515966 -157.169 -1.52686e-17 2.30279e-14 -0.0386974 -0.116085 0.0223413 4 
42467 2 -2.045e-17 141.581 -7.61732e-17 -0.55 -1.92506e-14 -157.08 -1.52686e-17 3.07039e-14 -0.0515966 -0.154781 2.34951e-14 6 
42469 2 -1.5 142.447 -6.29506e-17 -0.55 -0.0515966 -157.169 -1.52686e-17 2.30279e-14 -0.0386974 -0.116085 0.0223413 4 
42470 2 -0.5 142.447 -6.29506e-17 -0.55 -1.92228e-14 -157.08 -1.52686e-17 3.07039e-14 -0.0515966 -0.154781 2.34951e-14 6 
42473 2 -2 143.313 -4.97279e-17 -0.55 -0.0515966 -156.99 -1.52686e-17 7.67597e-15 -0.0128991 -0.0386951 0.0223413 2 
42474 2 -1 143.313 -4.97279e-17 -0.55 -1.0917e-14 -156.901 -1.52686e-17 1.53519e-14 -0.0257983 -0.0773903 1.17475e-14 4 
42475 2 -1.46707e-17 143.313 -4.97279e-17 -0.55 -1.09239e-14 -156.901 -1.52686e-17 1.53519e-14 -0.0257983 -0.0773903 1.1751e-14 4 
42465 2 0.5 140.715 -8.93959e-17 -0.55 0.0515966 -157.169 -1.52686e-17 2.30279e-14 -0.0386974 -0.116085 -0.0223413 4 
42468 2 1 141.581 -7.61732e-17 -0.55 0.0515966 -157.169 -1.52686e-17 2.30279e-14 -0.0386974 -0.116085 -0.0223413 4 
42471 2 0.5 142.447 -6.29506e-17 -0.55 -1.92367e-14 -157.08 -1.52686e-17 3.07039e-14 -0.0515966 -0.154781 2.34951e-14 6 
42472 2 1.5 142.447 -6.29506e-17 -0.55 0.0515966 -157.169 -1.52686e-17 2.30279e-14 -0.0386974 -0.116085 -0.0223413 4 
42476 2 1 143.313 -4.97279e-17 -0.55 -1.0917e-14 -156.901 -1.52686e-17 1.53519e-14 -0.0257983 -0.0773903 1.17475e-14 4 
42477 2 2 143.313 -4.97279e-17 -0.55 0.0515966 -156.99 -1.52686e-17 7.67597e-15 -0.0128991 -0.0386951 -0.0223413 2 
ITEM: TIMESTEP
12000
ITEM: NUMBER OF ATOMS
15
ITEM: BOX BOUNDS ff fm pp
-4.1000000000000000e+01 4.1000000000000000e+01
0.0000000000000000e+00 2.0000000000000000e+02
-2.5000000000000000e-01 2.5000000000000000e-01
ITEM: ATOMS id type x y vx vy fx fy omegaz tqz c_101[1] c_101[2] c_101[4] c_102 
42463 2 -3.16977e-17 139.82 -1.16087e-16 -0.6 -2.96867e-14 -157.258 -1.84493e-17 1.87636e-14 -0.0257983 -0.0773903 1.42386e-14 2 
42464 2 -0.5 140.686 -1.0011e-16 -0.6 -0.0515966 -157.169 -1.84493e-17 2.81454e-14 -0.0386974 -0.116085 0.0223413 4 
42466 2 -1 141.552 -8.41328e-17 -0.6 -0.0515966 -157.169 -1.84493e-17 2.81454e-14 -0.0386974 -0.116085 0.0223413 4 
42467 2 -2.44578e-17 141.552 -8.41328e-17 -0.6 -1.92228e-14 -157.08 -1.84493e-17 3.75271e-14 -0.0515966 -0.154781 2.84842e-14 6 
42469 2 -1.5 142.418 -6.81557e-17 -0.6 -0.0515966 -157.169 -1.84493e-17 2.81454e-14 -0.0386974 -0.116085 0.0223413 4 
42470 2 -0.5 142.418 -6.81557e-17 -0.6 -1.92367e-14 -157.08 -1.84493e-17 3.75271e-14 -0.0515966 -0.154781 2.84842e-14 6 
42473 2 -2 143.284 -5.21786e-17 -0.6 -0.0515966 -156.99 -1.84493e-17 9.38179e-15 -0.0128991 -0.0386951 0.0223413 2 
42474 2 -1 143.284 -5.21786e-17 -0.6 -8.79367e-15 -156.901 -1.84493e-17 1.87636e-14 -0.0257983 -0.0773903 1.42421e-14 4 
42475 2 -1.72179e-17 143.284 -5.21786e-17 -0.6 -8.78673e-15 -156.901 -1.84493e-17 1.87636e-14 -0.0257983 -0.0773903 1.42386e-14 4 
42465 2 0.5 140.686 -1.0011e-16 -0.6 0.0515966 -157.169 -1.84493e-17 2.81454e-14 -0.0386974 -0.116085 -0.0223413 4 
42468 2 1 141.552 -8.41328e-17 -0.6 0.0515966 -157.169 -1.84493e-17 2.81454e-14 -0.0386974 -0.116085 -0.0223413 4 
42471 2 0.5 142.418 -6.81557e-17 -0.6 -1.92506e-14 -157.08 -1.84493e-17 3.75271e-14 -0.0515966 -0.154781 2.84842e-14 6 
42472 2 1.5 142.418 -6.81557e-17 -0.6 0.0515966 -157.169 -1.84493e-17 2.81454e-14 -0.0386974 -0.116085 -0.0223413 4 
42476 2 1 143.284 -5.21786e-17 -0.6 -8.79367e-15 -156.901 -1.84493e-17 1.87636e-14 -0.0257983 -0.0773903 1.42421e-14 4 
42477 2 2 143.284 -5.21786e-17 -0.6 0.0515966 -156.99 -1.84493e-17 9.38179e-15 -0.0128991 -0.0386951 -0.0223413 2 
ITEM: TIMESTEP
13000
ITEM: NUMBER OF ATOMS
15
ITEM: BOX BOUNDS ff fm pp
-4.1000000000000000e+01 4.1000000000000000e+01
0.0000000000000000e+00 2.0000000000000000e+02
-2.5000000000000000e-01 2.5000000000000000e-01
ITEM: ATOMS id type x y vx vy fx fy omegaz tqz c_101[1] c_101[2] c_101[4] c_102 
42463 2 -3.78425e-17 139.789 -1.30275e-16 -0.65 -3.21708e-14 -157.258 -2.19417e-17 2.26211e-14 -0.0257983 -0.0773903 1.70176e-14 2 
42464 2 -0.5 140.655 -1.11274e-16 -0.65 -0.0515966 -157.169 -2.19417e-17 3.39317e-14 -0.0386974 -0.116085 0.0223413 4 
42466 2 -1 141.521 -9.22723e-17 -0.65 -0.0515966 -157.169 -2.19417e-17 3.39317e-14 -0.0386974 -0.116085 0.0223413 4 
42467 2 -2.88644e-17 141.521 -9.22723e-17 -0.65 -1.92506e-14 -157.08 -2.19417e-17 4.52422e-14 -0.0515966 -0.154781 3.40422e-14 6 
42469 2 -1.5 142.387 -7.32707e-17 -0.65 -0.0515966 -157.169 -2.19417e-17 3.39317e-14 -0.0386974 -0.116085 0.0223413 4 
42470 2 -0.5 142.387 -7.32707e-17 -0.65 -1.92298e-14 -157.08 -2.19417e-17 4.52422e-14 -0.0515966 -0.154781 3.40387e-14 6 
42473 2 -2 143.253 -5.42692e-17 -0.65 -0.0515966 -156.99 -2.19417e-17 1.13106e-14 -0.0128991 -0.0386951 0.0223413 2 
42474 2 -1 143.253 -5.42692e-17 -0.65 -6.30955e-15 -156.901 -2.19417e-17 2.26211e-14 -0.0257983 -0.0773903 1.70211e-14 4 
42475 2 -1.98863e-17 143.253 -5.42692e-17 -0.65 -6.30261e-15 -156.901 -2.19417e-17 2.26211e-14 -0.0257983 -0.0773903 1.70176e-14 4 
42465 2 0.5 140.655 -1.11274e-16 -0.65 0.0515966 -157.169 -2.19417e-17 3.39317e-14 -0.0386974 -0.116085 -0.0223413 4 
42468 2 1 141.521 -9.22723e-17 -0.65 0.0515966 -157.169 -2.19417e-17 3.39317e-14 -0.0386974 -0.116085 -0.0223413 4 
42471 2 0.5 142.387 -7.32707e-17 -0.65 -1.92436e-14 -157.08 -2.19417e-17 4.52422e-14 -0.0515966 -0.154781 3.40387e-14 6 
42472 2 1.5 142.387 -7.32707e-17 -0.65 0.0515966 -157.169 -2.19417e-17 3.39317e-14 -0.0386974 -0.116085 -0.0223413 4 
42476 2 1 143.253 -5.42692e-17 -0.65 -6.30955e-15 -156.901 -2.19417e-17 2.26211e-14 -0.0257983 -0.0773903 1.70211e-14 4 
42477 2 2 143.253 -5.42692e-17 -0.65 0.0515966 -156.99 -2.19417e-17 1.13106e-14 -0.0128991 -0.0386951 -0.0223413 2 
ITEM: TIMESTEP
14000
ITEM: NUMBER OF ATOMS
15
ITEM: BOX BOUNDS ff fm pp
-4.1000000000000000e+01 4.1000000000000000e+01
0.0000000000000000e+00 2.0000000000000000e+02
-2.5000000000000000e-01 2.5000000000000000e-01
ITEM: ATOMS id type x y vx vy fx fy omegaz tqz c_101[1] c_101[2] c_101[4] c_102 
42463 2 -4.47383e-17 139.755 -1.45557e-16 -0.7 -3.51545e-14 -157.258 -2.59076e-17 2.70835e-14 -0.0257983 -0.0773903 2.01887e-14 2 
42464 2 -0.5 140.621 -1.23121e-16 -0.7 -0.0515966 -157.169 -2.59076e-17 4.06252e-14 -0.0386974 -0.116085 0.0223413 4 
42466 2 -1 141.487 -1.00685e-16 -0.7 -0.0515966 -157.169 -2.59076e-17 4.06252e-14 -0.0386974 -0.116085 0.0223413 4 
42467 2 -3.36883e-17 141.487 -1.00685e-16 -0.7 -1.92506e-14 -157.08 -2.59076e-17 5.41669e-14 -0.0515966 -0.154781 4.03844e-14 6 
42469 2 -1.5 142.353 -7.82495e-17 -0.7 -0.0515966 -157.169 -2.59076e-17 4.06252e-14 -0.0386974 -0.116085 0.0223413 4 
42470 2 -0.5 142.353 -7.82495e-17 -0.7 -1.92298e-14 -157.08 -2.59076e-17 5.41669e-14 -0.0515966 -0.154781 4.03809e-14 6 
42473 2 -2 143.219 -5.58135e-17 -0.7 -0.0515966 -156.99 -2.59076e-17 1.35417e-14 -0.0128991 -0.0386951 0.0223413 2 