ITEM: TIMESTEP
0
ITEM: NUMBER OF ATOMS
15
ITEM: BOX BOUNDS ff fm pp
-4.1000000000000000e+01 4.1000000000000000e+01
0.0000000000000000e+00 2.0000000000000000e+02
-2.5000000000000000e-01 2.5000000000000000e-01
ITEM: ATOMS id x y 
42464 -0.5 140.866 
42466 -1 141.732 
42469 -1.5 142.598 
42470 -0.5 142.598 
42473 -2 143.464 
42474 -1 143.464 
42463 0 140 
42465 0.5 140.866 
42467 0 141.732 
42468 1 141.732 
42471 0.5 142.598 
42472 1.5 142.598 
42475 0 143.464 
42476 1 143.464 
42477 2 143.464 
ITEM: TIMESTEP
1000
ITEM: NUMBER OF ATOMS
15
ITEM: BOX BOUNDS ff fm pp
-4.1000000000000000e+01 4.1000000000000000e+01
0.0000000000000000e+00 2.0000000000000000e+02
-2.5000000000000000e-01 2.5000000000000000e-01
ITEM: ATOMS id x y 
42464 -0.5 140.865 
42466 -1 141.731 
42469 -1.5 142.597 
42470 -0.5 142.597 
42473 -2 143.463 
42474 -1 143.463 
42463 -2.10335e-19 139.999 
42465 0.5 140.865 
42467 -1.67404e-19 141.731 
42468 1 141.731 
42471 0.5 142.597 
42472 1.5 142.597 
42475 -1.24474e-19 143.463 
42476 1 143.463 
42477 2 143.463 
ITEM: TIMESTEP
2000
ITEM: NUMBER OF ATOMS
15
ITEM: BOX BOUNDS ff fm pp
-4.1000000000000000e+01 4.1000000000000000e+01
0.0000000000000000e+00 2.0000000000000000e+02
-2.5000000000000000e-01 2.5000000000000000e-01
ITEM: ATOMS id x y 
42464 -0.5 140.861 
42466 -1 141.727 
42469 -1.5 142.593 
42470 -0.5 142.593 
42473 -2 143.459 
42474 -1 143.459 
42463 -8.41326e-19 139.995 
42465 0.5 140.861 
42467 -6.69603e-19 141.727 
42468 1 141.727 
42471 0.5 142.593 
42472 1.5 142.593 
42475 -4.97881e-19 143.459 
42476 1 143.459 
42477 2 143.459 
ITEM: TIMESTEP
3000
ITEM: NUMBER OF ATOMS
15
ITEM: BOX BOUNDS ff fm pp
-4.1000000000000000e+01 4.1000000000000000e+01
0.0000000000000000e+00 2.0000000000000000e+02
-2.5000000000000000e-01 2.5000000000000000e-01
ITEM: ATOMS id x y 
42464 -0.5 140.855 
42466 -1 141.721 
42469 -1.5 142.587 
42470 -0.5 142.587 
42473 -2 143.453 
42474 -1 143.453 
42463 -1.89297e-18 139.989 
42465 0.5 140.855 
42467 -1.5066e-18 141.721 
42468 1 141.721 
42471 0.5 142.587 
42472 1.5 142.587 
42475 -1.12022e-18 143.453 
42476 1 143.453 
42477 2 143.453 
ITEM: TIMESTEP
4000
ITEM: NUMBER OF ATOMS
15
ITEM: BOX BOUNDS ff fm pp
-4.1000000000000000e+01 4.1000000000000000e+01
0.0000000000000000e+00 2.0000000000000000e+02
-2.5000000000000000e-01 2.5000000000000000e-01
ITEM: ATOMS id x y 
42464 -0.5 140.846 
42466 -1 141.712 
42469 -1.5 142.578 
42470 -0.5 142.578 
42473 -2 143.444 
42474 -1 143.444 
42463 -3.36527e-18 139.98 
42465 0.5 140.846 
42467 -2.67838e-18 141.712 
42468 1 141.712 
42471 0.5 142.578 
42472 1.5 142.578 
42475 -1.99149e-18 143.444 
42476 1 143.444 
42477 2 143.444 
ITEM: TIMESTEP
5000
ITEM: NUMBER OF ATOMS
15
ITEM: BOX BOUNDS ff fm pp
-4.1000000000000000e+01 4.1000000000000000e+01
0.0000000000000000e+00 2.0000000000000000e+02
-2.5000000000000000e-01 2.5000000000000000e-01
ITEM: ATOMS id x y 
42464 -0.5 140.835 
42466 -1 141.701 
42469 -1.5 142.567 
42470 -0.5 142.567 
42473 -2 143.433 
42474 -1 143.433 
42463 -5.25822e-18 139.969 
42465 0.5 140.835 
42467 -4.18496e-18 141.701 
42468 1 141.701 
42471 0.5 142.567 
42472 1.5 142.567 
42475 -3.11169e-18 143.433 
42476 1 143.433 
42477 2 143.433 
ITEM: TIMESTEP
6000
ITEM: NUMBER OF ATOMS
15
ITEM: BOX BOUNDS ff fm pp
-4.1000000000000000e+01 4.1000000000000000e+01
0.0000000000000000e+00 2.0000000000000000e+02
-2.5000000000000000e-01 2.5000000000000000e-01
ITEM: ATOMS id x y 
42464 -0.5 140.821 
42466 -1 141.687 
42469 -1.5 142.553 
42470 -0.5 142.553 
42473 -2 143.419 
42474 -1 143.419 
42463 -7.57183e-18 139.955 
42465 0.5 140.821 
42467 -6.02633e-18 141.687 
42468 1 141.687 
42471 0.5 142.553 
42472 1.5 142.553 
42475 -4.48082e-18 143.419 
42476 1 143.419 
42477 2 143.419 
ITEM: TIMESTEP
7000
ITEM: NUMBER OF ATOMS
15
ITEM: BOX BOUNDS ff fm pp
-4.1000000000000000e+01 4.1000000000000000e+01
0.0000000000000000e+00 2.0000000000000000e+02
-2.5000000000000000e-01 2.5000000000000000e-01
ITEM: ATOMS id x y 
42464 -0.5 140.805 
42466 -1 141.671 
42469 -1.5 142.537 
42470 -0.5 142.537 
42473 -2 143.403 
42474 -1 143.403 
42463 -1.03061e-17 139.939 
42465 0.5 140.805 
42467 -8.20249e-18 141.671 
42468 1 141.671 
42471 0.5 142.537 
42472 1.5 142.537 
42475 -6.09889e-18 143.403 
42476 1 143.403 
42477 2 143.403 
ITEM: TIMESTEP
8000
ITEM: NUMBER OF ATOMS
15
ITEM: BOX BOUNDS ff fm pp
-4.1000000000000000e+01 4.1000000000000000e+01
0.0000000000000000e+00 2.0000000000000000e+02
-2.5000000000000000e-01 2.5000000000000000e-01
ITEM: ATOMS id x y 
42464 -0.5 140.786 
42466 -1 141.652 
42469 -1.5 142.518 
42470 -0.5 142.518 
42473 -2 143.384 
42474 -1 143.384 
42463 -1.34819e-17 139.92 
42465 0.5 140.786 
42467 -1.07187e-17 141.652 
42468 1 141.652 
42471 0.5 142.518 
42472 1.5 142.518 
42475 -7.95546e-18 143.384 
42476 1 143.384 
42477 2 143.384 
ITEM: TIMESTEP
9000
ITEM: NUMBER OF ATOMS
15
ITEM: BOX BOUNDS ff fm pp
-4.1000000000000000e+01 4.1000000000000000e+01
0.0000000000000000e+00 2.0000000000000000e+02
-2.5000000000000000e-01 2.5000000000000000e-01
ITEM: ATOMS id x y 
42463 -1.71838e-17 139.899 
42464 -0.5 140.765 
42466 -1 141.631 
42467 -1.3596e-17 141.631 
42469 -1.5 142.497 
42470 -0.5 142.497 
42473 -2 143.363 
42474 -1 143.363 
42475 -1.00082e-17 143.363 
42465 0.5 140.765 
42468 1 141.631 
42471 0.5 142.497 
42472 1.5 142.497 
42476 1 143.363 
42477 2 143.363 
ITEM: TIMESTEP
10000
ITEM: NUMBER OF ATOMS
15
ITEM: BOX BOUNDS ff fm pp
-4.1000000000000000e+01 4.1000000000000000e+01
0.0000000000000000e+00 2.0000000000000000e+02
-2.5000000000000000e-01 2.5000000000000000e-01
ITEM: ATOMS id x y 
42463 -2.14208e-17 139.875 
42464 -0.5 140.741 
42466 -1 141.607 
42467 -1.68367e-17 141.607 
42469 -1.5 142.473 
42470 -0.5 142.473 
42473 -2 143.339 
42474 -1 143.339 
42475 -1.22527e-17 143.339 
42465 0.5 140.741 
42468 1 141.607 
42471 0.5 142.473 
42472 1.5 142.473 
42476 1 143.339 
42477 2 143.339 
ITEM: TIMESTEP
11000
ITEM: NUMBER OF ATOMS
15
ITEM: BOX BOUNDS ff fm pp
-4.1000000000000000e+01 4.1000000000000000e+01
0.0000000000000000e+00 2.0000000000000000e+02
-2.5000000000000000e-01 2.5000000000000000e-01
ITEM: ATOMS id x y 
42463 -2.62293e-17 139.849 
42464 -0.5 140.715 
42466 -1 141.581 
42467 -2.045e-17 141.581 
42469 -1.5 142.447 
42470 -0.5 142.447 
42473 -2 143.313 
42474 -1 143.313 
42475 -1.46707e-17 143.313 
42465 0.5 140.715 
42468 1 141.581 
42471 0.5 142.447 
42472 1.5 142.447 
42476 1 143.313 
42477 2 143.313 
ITEM: TIMESTEP
12000
ITEM: NUMBER OF ATOMS
15
ITEM: BOX BOUNDS ff fm pp
-4.1000000000000000e+01 4.1000000000000000e+01
0.0000000000000000e+00 2.0000000000000000e+02
-2.5000000000000000e-01 2.5000000000000000e-01
ITEM: ATOMS id x y 
42463 -3.16977e-17 139.82 
42464 -0.5 140.686 
42466 -1 141.552 
42467 -2.44578e-17 141.552 
42469 -1.5 142.418 
42470 -0.5 142.418 
42473 -2 143.284 
42474 -1 143.284 
42475 -1.72179e-17 143.284 
42465 0.5 140.686 
42468 1 141.552 
42471 0.5 142.418 
42472 1.5 142.418 
42476 1 143.284 
42477 2 143.284 
ITEM: TIMESTEP
13000
ITEM: NUMBER OF ATOMS
15
ITEM: BOX BOUNDS ff fm pp
-4.1000000000000000e+01 4.1000000000000000e+01
0.0000000000000000e+00 2.0000000000000000e+02
-2.5000000000000000e-01 2.5000000000000000e-01
ITEM: ATOMS id x y 
42463 -3.78425e-17 139.789 
42464 -0.5 140.655 
42466 -1 141.521 
42467 -2.88644e-17 141.521 
42469 -1.5 142.387 
42470 -0.5 142.387 
42473 -2 143.253 
42474 -1 143.253 
42475 -1.98863e-17 143.253 
42465 0.5 140.655 
42468 1 141.521 
42471 0.5 142.387 
42472 1.5 142.387 
42476 1 143.253 
42477 2 143.253 
ITEM: TIMESTEP
14000
ITEM: NUMBER OF ATOMS
15
ITEM: BOX BOUNDS ff fm pp
-4.1000000000000000e+01 4.1000000000000000e+01
0.0000000000000000e+00 2.0000000000000000e+02
-2.5000000000000000e-01 2.5000000000000000e-01
ITEM: ATOMS id x y 
42463 -4.47383e-17 139.755 
42464 -0.5 140.621 
42466 -1 141.487 
42467 -3.36883e-17 141.487 
42469 -1.5 142.353 
42470 -0.5 142.353 
42473 -2 143.219 
42474 -1 143.219 
42475 -2.26383e-17 143.219 
42465 0.5 140.621 
42468 1 141.487 
42471 0.5 142.353 
42472 1.5 142.353 
42476 1 143.219 
42477 2 143.219 
ITEM: TIMESTEP
15000
ITEM: NUMBER OF ATOMS
15
ITEM: BOX BOUNDS ff fm pp
-4.1000000000000000e+01 4.1000000000000000e+01
0.0000000000000000e+00 2.0000000000000000e+02
-2.5000000000000000e-01 2.5000000000000000e-01
ITEM: ATOMS id x y 
42463 -5.23246e-17 139.719 
42464 -0.5 140.585 
42466 -1 141.451 
42467 -3.89145e-17 141.451 
42469 -1.5 142.317 
42470 -0.5 142.317 
42473 -2 143.183 
42474 -1 143.183 
42475 -2.55045e-17 143.183 
42465 0.5 140.585 
42468 1 141.451 
42471 0.5 142.317 
42472 1.5 142.317 
42476 1 143.183 
42477 2 143.183 
ITEM: TIMESTEP
16000
ITEM: NUMBER OF ATOMS
15
ITEM: BOX BOUNDS ff fm pp
-4.1000000000000000e+01 4.1000000000000000e+01
0.0000000000000000e+00 2.0000000000000000e+02
-2.5000000000000000e-01 2.5000000000000000e-01
ITEM: ATOMS id x y 
42463 -6.05147e-17 139.68 
42464 -0.5 140.546 
42466 -1 141.412 
42467 -4.45213e-17 141.412 
42469 -1.5 142.278 
42470 -0.5 142.278 
42473 -2 143.144 
42474 -1 143.144 
42475 -2.85279e-17 143.144 
42465 0.5 140.546 
42468 1 141.412 
42471 0.5 142.278 
42472 1.5 142.278 
42476 1 143.144 
42477 2 143.144 
ITEM: TIMESTEP
17000
ITEM: NUMBER OF ATOMS
15
ITEM: BOX BOUNDS ff fm pp
-4.1000000000000000e+01 4.1000000000000000e+01
0.0000000000000000e+00 2.0000000000000000e+02
-2.5000000000000000e-01 2.5000000000000000e-01
ITEM: ATOMS id x y 
42463 -6.92962e-17 139.639 
42464 -0.5 140.505 
42466 -1 141.371 
42467 -5.05056e-17 141.371 
42469 -1.5 142.237 
42470 -0.5 142.237 
42473 -2 143.103 
42474 -1 143.103 
42475 -3.17149e-17 143.103 
42465 0.5 140.505 
42468 1 141.371 
42471 0.5 142.237 
42472 1.5 142.237 
42476 1 143.103 
42477 2 143.103 
ITEM: TIMESTEP
18000
ITEM: NUMBER OF ATOMS
15
ITEM: BOX BOUNDS ff fm pp
-4.1000000000000000e+01 4.1000000000000000e+01
0.0000000000000000e+00 2.0000000000000000e+02
-2.5000000000000000e-01 2.5000000000000000e-01
ITEM: ATOMS id x y 
42463 -7.82549e-17 139.595 
42464 -0.5 140.461 
42466 -1 141.327 
42467 -5.67637e-17 141.327 
42469 -1.5 142.193 
42470 -0.5 142.193 
42473 -2 143.059 
42474 -1 143.059 
42475 -3.52726e-17 143.059 
42465 0.5 140.461 
42468 1 141.327 
42471 0.5 142.193 
42472 1.5 142.193 
42476 1 143.059 
42477 2 143.059 
ITEM: TIMESTEP
19000
ITEM: NUMBER OF ATOMS
15
ITEM: BOX BOUNDS ff fm pp
-4.1000000000000000e+01 4.1000000000000000e+01
0.0000000000000000e+00 2.0000000000000000e+02
-2.5000000000000000e-01 2.5000000000000000e-01
ITEM: ATOMS id x y 
42463 -8.72284e-17 139.549 
42464 -0.5 140.415 
42466 -1 141.281 
42467 -6.32552e-17 141.281 
42469 -1.5 142.147 
42470 -0.5 142.147 
42473 -2 143.013 
42474 -1 143.013 
42475 -3.92821e-17 143.013 
42465 0.5 140.415 
42468 1 141.281 
42471 0.5 142.147 
42472 1.5 142.147 
42476 1 143.013 
42477 2 143.013 
ITEM: TIMESTEP
20000
ITEM: NUMBER OF ATOMS
15
ITEM: BOX BOUNDS ff fm pp
-4.1000000000000000e+01 4.1000000000000000e+01
0.0000000000000000e+00 2.0000000000000000e+02
-2.5000000000000000e-01 2.5000000000000000e-01
ITEM: ATOMS id x y 
42463 -9.63953e-17 139.5 
42464 -0.5 140.366 
42466 -1 141.232 
42467 -7.00247e-17 141.232 
42469 -1.5 142.098 
42470 -0.5 142.098 
42473 -2 142.964 
42474 -1 142.964 
42475 -4.36542e-17 142.964 
42465 0.5 140.366 
42468 1 141.232 
42471 0.5 142.098 
42472 1.5 142.098 
42476 1 142.964 
42477 2 142.964 
ITEM: TIMESTEP
21000
ITEM: NUMBER OF ATOMS
15
ITEM: BOX BOUNDS ff fm pp
-4.1000000000000000e+01 4.1000000000000000e+01
0.0000000000000000e+00 2.0000000000000000e+02
-2.5000000000000000e-01 2.5000000000000000e-01
ITEM: ATOMS id x y 
42463 -1.05934e-16 139.449 
42464 -0.5 140.315 
42466 -1 141.181 
42467 -7.71167e-17 141.181 
42469 -1.5 142.047 
42470 -0.5 142.047 
42473 -2 142.913 
42474 -1 142.913 
42475 -4.82997e-17 142.913 
42465 0.5 140.315 
42468 1 141.181 
42471 0.5 142.047 
42472 1.5 142.047 
42476 1 142.913 
42477 2 142.913 
ITEM: TIMESTEP
22000
ITEM: NUMBER OF ATOMS
15
ITEM: BOX BOUNDS ff fm pp
-4.1000000000000000e+01 4.1000000000000000e+01
0.0000000000000000e+00 2.0000000000000000e+02
-2.5000000000000000e-01 2.5000000000000000e-01
ITEM: ATOMS id x y 
42463 -1.15893e-16 139.395 
42464 -0.5 140.261 
42466 -1 141.127 
42467 -8.45436e-17 141.127 
42469 -1.5 141.993 
42470 -0.5 141.993 
42473 -2 142.859 
42474 -1 142.859 
42475 -5.31941e-17 142.859 
42465 0.5 140.261 
42468 1 141.127 
42471 0.5 141.993 
42472 1.5 141.993 
42476 1 142.859 
42477 2 142.859 
ITEM: TIMESTEP
23000
ITEM: NUMBER OF ATOMS
15
ITEM: BOX BOUNDS ff fm pp
-4.1000000000000000e+01 4.1000000000000000e+01
0.0000000000000000e+00 2.0000000000000000e+02
-2.5000000000000000e-01 2.5000000000000000e-01
ITEM: ATOMS id x y 
42463 -1.26273e-16 139.339 
42464 -0.5 140.205 
42466 -1 141.071 
42467 -9.23052e-17 141.071 
42469 -1.5 141.937 
42470 -0.5 141.937 
42473 -2 142.803 
42474 -1 142.803 
42475 -5.83374e-17 142.803 
42465 0.5 140.205 
42468 1 141.071 
42471 0.5 141.937 
42472 1.5 141.937 
42476 1 142.803 
42477 2 142.803 
ITEM: TIMESTEP
24000
ITEM: NUMBER OF ATOMS
15
ITEM: BOX BOUNDS ff fm pp
-4.1000000000000000e+01 4.1000000000000000e+01
0.0000000000000000e+00 2.0000000000000000e+02
-2.5000000000000000e-01 2.5000000000000000e-01
ITEM: ATOMS id x y 
42463 -1.37073e-16 139.28 
42464 -0.5 140.146 
42466 -1 141.012 
42467 -1.00402e-16 141.012 
42469 -1.5 141.878 
42470 -0.5 141.878 
42473 -2 142.744 
42474 -1 142.744 
42475 -6.37297e-17 142.744 
42465 0.5 140.146 
42468 1 141.012 
42471 0.5 141.878 
42472 1.5 141.878 
42476 1 142.744 
42477 2 142.744 
ITEM: TIMESTEP
25000
ITEM: NUMBER OF ATOMS
15
ITEM: BOX BOUNDS ff fm pp
-4.1000000000000000e+01 4.1000000000000000e+01
0.0000000000000000e+00 2.0000000000000000e+02
-2.5000000000000000e-01 2.5000000000000000e-01
ITEM: ATOMS id x y 
42463 -1.48294e-16 139.219 
42464 -0.5 140.085 
42466 -1 140.951 
42467 -1.08833e-16 140.951 
42469 -1.5 141.817 
42470 -0.5 141.817 
42473 -2 142.683 
42474 -1 142.683 
42475 -6.93708e-17 142.683 
42465 0.5 140.085 
42468 1 140.951 
42471 0.5 141.817 
42472 1.5 141.817 
42476 1 142.683 
42477 2 142.683 
ITEM: TIMESTEP
26000
ITEM: NUMBER OF ATOMS
15
ITEM: BOX BOUNDS ff fm pp
-4.1000000000000000e+01 4.1000000000000000e+01
0.0000000000000000e+00 2.0000000000000000e+02
-2.5000000000000000e-01 2.5000000000000000e-01
ITEM: ATOMS id x y 
42463 -1.59872e-16 139.155 
42464 -0.5 140.021 
42466 -1 140.887 
42467 -1.17582e-16 140.887 
42469 -1.5 141.753 
42470 -0.5 141.753 
42473 -2 142.619 
42474 -1 142.619 
42475 -7.52931e-17 142.619 
42465 0.5 140.021 
42468 1 140.887 
42471 0.5 141.753 
42472 1.5 141.753 
42476 1 142.619 
42477 2 142.619 
ITEM: TIMESTEP
27000
ITEM: NUMBER OF ATOMS
15
ITEM: BOX BOUNDS ff fm pp
-4.1000000000000000e+01 4.1000000000000000e+01
0.0000000000000000e+00 2.0000000000000000e+02
-2.5000000000000000e-01 2.5000000000000000e-01
ITEM: ATOMS id x y 
42463 -1.71462e-16 139.089 
42464 -0.5 139.955 
42466 -1 140.821 
42467 -1.26565e-16 140.821 
42469 -1.5 141.687 
42470 -0.5 141.687 
42473 -2 142.553 
42474 -1 142.553 
42475 -8.1668e-17 142.553 
42465 0.5 139.955 
42468 1 140.821 
42471 0.5 141.687 
42472 1.5 141.687 
42476 1 142.553 
42477 2 142.553 
ITEM: TIMESTEP
28000
ITEM: NUMBER OF ATOMS
15
ITEM: BOX BOUNDS ff fm pp
-4.1000000000000000e+01 4.1000000000000000e+01
0.0000000000000000e+00 2.0000000000000000e+02
-2.5000000000000000e-01 2.5000000000000000e-01
ITEM: ATOMS id x y 
42463 -1.83015e-16 139.02 
42464 -0.5 139.886 
42466 -1 140.752 
42467 -1.35768e-16 140.752 
42469 -1.5 141.618 
42470 -0.5 141.618 
42473 -2 142.484 
42474 -1 142.484 
42475 -8.85208e-17 142.484 
42465 0.5 139.886 
42468 1 140.752 
42471 0.5 141.618 
42472 1.5 141.618 
42476 1 142.484 
42477 2 142.484 
ITEM: TIMESTEP
29000
ITEM: NUMBER OF ATOMS
15
ITEM: BOX BOUNDS ff fm pp
-4.1000000000000000e+01 4.1000000000000000e+01
0.0000000000000000e+00 2.0000000000000000e+02
-2.5000000000000000e-01 2.5000000000000000e-01
ITEM: ATOMS id x y 
42463 -1.94537e-16 138.949 
42464 -0.5 139.815 
42466 -1 140.681 
42467 -1.45193e-16 140.681 
42469 -1.5 141.547 
42470 -0.5 141.547 
42473 -2 142.413 
42474 -1 142.413 
42475 -9.58487e-17 142.413 
42465 0.5 139.815 
42468 1 140.681 
42471 0.5 141.547 
42472 1.5 141.547 
42476 1 142.413 
42477 2 142.413 
ITEM: TIMESTEP
30000
ITEM: NUMBER OF ATOMS
15
ITEM: BOX BOUNDS ff fm pp
-4.1000000000000000e+01 4.1000000000000000e+01
0.0000000000000000e+00 2.0000000000000000e+02
-2.5000000000000000e-01 2.5000000000000000e-01
ITEM: ATOMS id x y 
42463 -2.06106e-16 138.875 
42464 -0.5 139.741 
42466 -1 140.607 
42467 -1.54859e-16 140.607 
42469 -1.5 141.473 
42470 -0.5 141.473 
42473 -2 142.339 
42474 -1 142.339 
42475 -1.03612e-16 142.339 
42465 0.5 139.741 
42468 1 140.607 
42471 0.5 141.473 
42472 1.5 141.473 
42476 1 142.339 
42477 2 142.339 
ITEM: TIMESTEP
31000
ITEM: NUMBER OF ATOMS
15
ITEM: BOX BOUNDS ff fm pp
-4.1000000000000000e+01 4.1000000000000000e+01
0.0000000000000000e+00 2.0000000000000000e+02
-2.5000000000000000e-01 2.5000000000000000e-01
ITEM: ATOMS id x y 
42463 -2.17753e-16 138.799 
42464 -0.5 139.665 
42466 -1 140.531 
42467 -1.64774e-16 140.531 
42469 -1.5 141.397 
42470 -0.5 141.397 
42473 -2 142.263 
42474 -1 142.263 
42475 -1.11796e-16 142.263 
42465 0.5 139.665 
42468 1 140.531 
42471 0.5 141.397 
42472 1.5 141.397 
42476 1 142.263 
42477 2 142.263 
ITEM: TIMESTEP
32000
ITEM: NUMBER OF ATOMS
15
ITEM: BOX BOUNDS ff fm pp
-4.1000000000000000e+01 4.1000000000000000e+01
0.0000000000000000e+00 2.0000000000000000e+02
-2.5000000000000000e-01 2.5000000000000000e-01
ITEM: ATOMS id x y 
42463 -2.29477e-16 138.72 
42464 -0.5 139.586 
42466 -1 140.452 
42467 -1.74939e-16 140.452 
42469 -1.5 141.318 
42470 -0.5 141.318 
42473 -2 142.184 
42474 -1 142.184 
42475 -1.204e-16 142.184 
42465 0.5 139.586 
42468 1 140.452 
42471 0.5 141.318 
42472 1.5 141.318 
42476 1 142.184 
42477 2 142.184 
ITEM: TIMESTEP
33000
ITEM: NUMBER OF ATOMS
15
ITEM: BOX BOUNDS ff fm pp
-4.1000000000000000e+01 4.1000000000000000e+01
0.0000000000000000e+00 2.0000000000000000e+02
-2.5000000000000000e-01 2.5000000000000000e-01
ITEM: ATOMS id x y 
42463 -2.4131e-16 138.639 
42464 -0.5 139.505 
42466 -1 140.371 
42467 -1.8536e-16 140.371 
42469 -1.5 141.237 
42470 -0.5 141.237 
42473 -2 142.103 
42474 -1 142.103 
42475 -1.29409e-16 142.103 
42465 0.5 139.505 
42468 1 140.371 
42471 0.5 141.237 
42472 1.5 141.237 
42476 1 142.103 
42477 2 142.103 
ITEM: TIMESTEP
34000
ITEM: NUMBER OF ATOMS
15
ITEM: BOX BOUNDS ff fm pp
-4.1000000000000000e+01 4.1000000000000000e+01
0.0000000000000000e+00 2.0000000000000000e+02
-2.5000000000000000e-01 2.5000000000000000e-01
ITEM: ATOMS id x y 
42463 -2.53331e-16 138.555 
42464 -0.5 139.421 
42466 -1 140.287 
42467 -1.96057e-16 140.287 
42469 -1.5 141.153 
42470 -0.5 141.153 
42473 -2 142.019 
42474 -1 142.019 
42475 -1.38784e-16 142.019 
42465 0.5 139.421 
42468 1 140.287 
42471 0.5 141.153 
42472 1.5 141.153 
42476 1 142.019 
42477 2 142.019 
ITEM: TIMESTEP
35000
ITEM: NUMBER OF ATOMS
15
ITEM: BOX BOUNDS ff fm pp
-4.1000000000000000e+01 4.1000000000000000e+01
0.0000000000000000e+00 2.0000000000000000e+02
-2.5000000000000000e-01 2.5000000000000000e-01
ITEM: ATOMS id x y 
42463 -2.65543e-16 138.469 
42464 -0.5 139.335 
42466 -1 140.201 
42467 -2.07032e-16 140.201 
42469 -1.5 141.067 
42470 -0.5 141.067 
42473 -2 141.933 
42474 -1 141.933 
42475 -1.48522e-16 141.933 
42465 0.5 139.335 
42468 1 140.201 
42471 0.5 141.067 
42472 1.5 141.067 
42476 1 141.933 
42477 2 141.933 
ITEM: TIMESTEP
36000
ITEM: NUMBER OF ATOMS
15
ITEM: BOX BOUNDS ff fm pp
-4.1000000000000000e+01 4.1000000000000000e+01
0.0000000000000000e+00 2.0000000000000000e+02
-2.5000000000000000e-01 2.5000000000000000e-01
ITEM: ATOMS id x y 
42463 -2.77947e-16 138.38 
42464 -0.5 139.246 
42466 -1 140.112 
42467 -2.18285e-16 140.112 
42469 -1.5 140.978 
42470 -0.5 140.978 
42473 -2 141.844 
42474 -1 141.844 
42475 -1.58623e-16 141.844 
42465 0.5 139.246 
42468 1 140.112 
42471 0.5 140.978 
42472 1.5 140.978 
42476 1 141.844 
42477 2 141.844 
ITEM: TIMESTEP
37000
ITEM: NUMBER OF ATOMS
15
ITEM: BOX BOUNDS ff fm pp
-4.1000000000000000e+01 4.1000000000000000e+01
0.0000000000000000e+00 2.0000000000000000e+02
-2.5000000000000000e-01 2.5000000000000000e-01
ITEM: ATOMS id x y 
42463 -2.90543e-16 138.289 
42464 -0.5 139.155 
42466 -1 140.021 
42467 -2.29815e-16 140.021 
42469 -1.5 140.887 
42470 -0.5 140.887 
42473 -2 141.753 
42474 -1 141.753 
42475 -1.69088e-16 141.753 
42465 0.5 139.155 
42468 1 140.021 
42471 0.5 140.887 
42472 1.5 140.887 
42476 1 141.753 
42477 2 141.753 
ITEM: TIMESTEP
38000
ITEM: NUMBER OF ATOMS
15
ITEM: BOX BOUNDS ff fm pp
-4.1000000000000000e+01 4.1000000000000000e+01
0.0000000000000000e+00 2.0000000000000000e+02
-2.5000000000000000e-01 2.5000000000000000e-01
ITEM: ATOMS id x y 
42463 -3.0333e-16 138.195 
42464 -0.5 139.061 
42466 -1 139.927 
42467 -2.41623e-16 139.927 
42469 -1.5 140.793 
42470 -0.5 140.793 
42473 -2 141.659 
42474 -1 141.659 
42475 -1.79916e-16 141.659 
42465 0.5 139.061 
42468 1 139.927 
42471 0.5 140.793 
42472 1.5 140.793 
42476 1 141.659 
42477 2 141.659 
ITEM: TIMESTEP
39000
ITEM: NUMBER OF ATOMS
15
ITEM: BOX BOUNDS ff fm pp
-4.1000000000000000e+01 4.1000000000000000e+01
0.0000000000000000e+00 2.0000000000000000e+02
-2.5000000000000000e-01 2.5000000000000000e-01
ITEM: ATOMS id x y 
42463 -3.16309e-16 138.099 
42464 -0.5 138.965 
42466 -1 139.831 
42467 -2.53708e-16 139.831 
42469 -1.5 140.697 
42470 -0.5 140.697 
42473 -2 141.563 
42474 -1 141.563 
42475 -1.91107e-16 141.563 
42465 0.5 138.965 
42468 1 139.831 
42471 0.5 140.697 
42472 1.5 140.697 
42476 1 141.563 
42477 2 141.563 
ITEM: TIMESTEP
40000
ITEM: NUMBER OF ATOMS
15
ITEM: BOX BOUNDS ff fm pp
-4.1000000000000000e+01 4.1000000000000000e+01
0.0000000000000000e+00 2.0000000000000000e+02
-2.5000000000000000e-01 2.5000000000000000e-01
ITEM: ATOMS id x y 
42463 -3.2948e-16 138 
42464 -0.5 138.866 
42466 -1 139.732 
42467 -2.66071e-16 139.732 
42469 -1.5 140.598 
42470 -0.5 140.598 
42473 -2 141.464 
42474 -1 141.464 
42475 -2.02662e-16 141.464 
42465 0.5 138.866 
42468 1 139.732 
42471 0.5 140.598 
42472 1.5 140.598 
42476 1 141.464 
42477 2 141.464 
ITEM: TIMESTEP
41000
ITEM: NUMBER OF ATOMS
15
ITEM: BOX BOUNDS ff fm pp
-4.1000000000000000e+01 4.1000000000000000e+01
0.0000000000000000e+00 2.0000000000000000e+02
-2.5000000000000000e-01 2.5000000000000000e-01
ITEM: ATOMS id x y 
42463 -3.42843e-16 137.899 
42464 -0.5 138.765 
42466 -1 139.631 
42467 -2.78711e-16 139.631 
42469 -1.5 140.497 
42470 -0.5 140.497 
42473 -2 141.363 
42474 -1 141.363 
42475 -2.1458e-16 141.363 
42465 0.5 138.765 
42468 1 139.631 
42471 0.5 140.497 
42472 1.5 140.497 
42476 1 141.363 
42477 2 141.363 
ITEM: TIMESTEP
42000
ITEM: NUMBER OF ATOMS
15
ITEM: BOX BOUNDS ff fm pp
-4.1000000000000000e+01 4.1000000000000000e+01
0.0000000000000000e+00 2.0000000000000000e+02
-2.5000000000000000e-01 2.5000000000000000e-01
ITEM: ATOMS id x y 
42463 -3.56334e-16 137.795 
42464 -0.5 138.661 
42466 -1 139.527 
42467 -2.91614e-16 139.527 
42469 -1.5 140.393 
42470 -0.5 140.393 
42473 -2 141.259 
42474 -1 141.259 
42475 -2.26893e-16 141.259 
42465 0.5 138.661 
42468 1 139.527 
42471 0.5 140.393 
42472 1.5 140.393 
42476 1 141.259 
42477 2 141.259 
ITEM: TIMESTEP
43000
ITEM: NUMBER OF ATOMS
15
ITEM: BOX BOUNDS ff fm pp
-4.1000000000000000e+01 4.1000000000000000e+01
0.0000000000000000e+00 2.0000000000000000e+02
-2.5000000000000000e-01 2.5000000000000000e-01
ITEM: ATOMS id x y 
42463 -3.69843e-16 137.689 
42464 -0.5 138.555 
42466 -1 139.421 
42467 -3.0475e-16 139.421 
42469 -1.5 140.287 
42470 -0.5 140.287 
42473 -2 141.153 
42474 -1 141.153 
42475 -2.39657e-16 141.153 
42465 0.5 138.555 
42468 1 139.421 
42471 0.5 140.287 
42472 1.5 140.287 
42476 1 141.153 
42477 2 141.153 
ITEM: TIMESTEP
44000
ITEM: NUMBER OF ATOMS
15
ITEM: BOX BOUNDS ff fm pp
-4.1000000000000000e+01 4.1000000000000000e+01
0.0000000000000000e+00 2.0000000000000000e+02
-2.5000000000000000e-01 2.5000000000000000e-01
ITEM: ATOMS id x y 
42463 -3.83593e-16 137.58 
42464 -0.5 138.446 
42466 -1 139.312 
42467 -3.18176e-16 139.312 
42469 -1.5 140.178 
42470 -0.5 140.178 
42473 -2 141.044 
42474 -1 141.044 
42475 -2.52759e-16 141.044 
42465 0.5 138.446 
42468 1 139.312 
42471 0.5 140.178 
42472 1.5 140.178 
42476 1 141.044 
42477 2 141.044 
ITEM: TIMESTEP
45000
ITEM: NUMBER OF ATOMS
15
ITEM: BOX BOUNDS ff fm pp
-4.1000000000000000e+01 4.1000000000000000e+01
0.0000000000000000e+00 2.0000000000000000e+02
-2.5000000000000000e-01 2.5000000000000000e-01
ITEM: ATOMS id x y 
42463 -3.97606e-16 137.469 
42464 -0.5 138.335 
42466 -1 139.201 
42467 -3.31897e-16 139.201 
42469 -1.5 140.067 
42470 -0.5 140.067 
42473 -2 140.933 
42474 -1 140.933 
42475 -2.66189e-16 140.933 
42465 0.5 138.335 
42468 1 139.201 
42471 0.5 140.067 
42472 1.5 140.067 
42476 1 140.933 
42477 2 140.933 
ITEM: TIMESTEP
46000
ITEM: NUMBER OF ATOMS
15
ITEM: BOX BOUNDS ff fm pp
-4.1000000000000000e+01 4.1000000000000000e+01
0.0000000000000000e+00 2.0000000000000000e+02
-2.5000000000000000e-01 2.5000000000000000e-01
ITEM: ATOMS id x y 
42463 -4.11887e-16 137.355 
42464 -0.5 138.221 
42466 -1 139.087 
42467 -3.45915e-16 139.087 
42469 -1.5 139.953 
42470 -0.5 139.953 
42473 -2 140.819 
42474 -1 140.819 
42475 -2.79944e-16 140.819 
42465 0.5 138.221 
42468 1 139.087 
42471 0.5 139.953 
42472 1.5 139.953 
42476 1 140.819 
42477 2 140.819 
ITEM: TIMESTEP
47000
ITEM: NUMBER OF ATOMS
15
ITEM: BOX BOUNDS ff fm pp
-4.1000000000000000e+01 4.1000000000000000e+01
0.0000000000000000e+00 2.0000000000000000e+02
-2.5000000000000000e-01 2.5000000000000000e-01
ITEM: ATOMS id x y 
42463 -4.26439e-16 137.239 
42464 -0.5 138.105 
42466 -1 138.971 
42467 -3.60231e-16 138.971 
42469 -1.5 139.837 
42470 -0.5 139.837 
42473 -2 140.703 
42474 -1 140.703 
42475 -2.94023e-16 140.703 
42465 0.5 138.105 
42468 1 138.971 
42471 0.5 139.837 
42472 1.5 139.837 
42476 1 140.703 
42477 2 140.703 
ITEM: TIMESTEP
48000
ITEM: NUMBER OF ATOMS
15
ITEM: BOX BOUNDS ff fm pp
-4.1000000000000000e+01 4.1000000000000000e+01
0.0000000000000000e+00 2.0000000000000000e+02
-2.5000000000000000e-01 2.5000000000000000e-01
ITEM: ATOMS id x y 
42463 -4.41266e-16 137.12 
42464 -0.5 137.986 
42466 -1 138.852 
42467 -3.74845e-16 138.852 
42469 -1.5 139.718 
42470 -0.5 139.718 
42473 -2 140.584 
42474 -1 140.584 
42475 -3.08424e-16 140.584 
42465 0.5 137.986 
42468 1 138.852 
42471 0.5 139.718 
42472 1.5 139.718 
42476 1 140.584 
42477 2 140.584 
ITEM: TIMESTEP
49000
ITEM: NUMBER OF ATOMS
15
ITEM: BOX BOUNDS ff fm pp
-4.1000000000000000e+01 4.1000000000000000e+01
0.0000000000000000e+00 2.0000000000000000e+02
-2.5000000000000000e-01 2.5000000000000000e-01
ITEM: ATOMS id x y 
42463 -4.56371e-16 136.999 
42464 -0.5 137.865 
42466 -1 138.731 
42467 -3.89758e-16 138.731 
42469 -1.5 139.597 
42470 -0.5 139.597 
42473 -2 140.463 
42474 -1 140.463 
42475 -3.23144e-16 140.463 
42465 0.5 137.865 
42468 1 138.731 
42471 0.5 139.597 
42472 1.5 139.597 
42476 1 140.463 
42477 2 140.463 
ITEM: TIMESTEP
50000
ITEM: NUMBER OF ATOMS
15
ITEM: BOX BOUNDS ff fm pp
-4.1000000000000000e+01 4.1000000000000000e+01
0.0000000000000000e+00 2.0000000000000000e+02
-2.5000000000000000e-01 2.5000000000000000e-01
ITEM: ATOMS id x y 
42463 -4.71713e-16 136.875 
42464 -0.5 137.741 
42466 -1 138.607 
42467 -4.0496e-16 138.607 
42469 -1.5 139.473 
42470 -0.5 139.473 
42473 -2 140.339 
42474 -1 140.339 
42475 -3.38206e-16 140.339 
42465 0.5 137.741 
42468 1 138.607 
42471 0.5 139.473 
42472 1.5 139.473 
42476 1 140.339 
42477 2 140.339 
ITEM: TIMESTEP
51000
ITEM: NUMBER OF ATOMS
15
ITEM: BOX BOUNDS ff fm pp
-4.1000000000000000e+01 4.1000000000000000e+01
0.0000000000000000e+00 2.0000000000000000e+02
-2.5000000000000000e-01 2.5000000000000000e-01
ITEM: ATOMS id x y 
42463 -4.87313e-16 136.749 
42464 -0.5 137.615 
42466 -1 138.481 
42467 -4.20455e-16 138.481 
42469 -1.5 139.347 
42470 -0.5 139.347 
42473 -2 140.213 
42474 -1 140.213 
42475 -3.53598e-16 140.213 
42465 0.5 137.615 
42468 1 138.481 
42471 0.5 139.347 
42472 1.5 139.347 
42476 1 140.213 
42477 2 140.213 
ITEM: TIMESTEP
52000
ITEM: NUMBER OF ATOMS
15
ITEM: BOX BOUNDS ff fm pp
-4.1000000000000000e+01 4.1000000000000000e+01
0.0000000000000000e+00 2.0000000000000000e+02
-2.5000000000000000e-01 2.5000000000000000e-01
ITEM: ATOMS id x y 
42463 -5.03219e-16 136.62 
42464 -0.5 137.486 
42466 -1 138.352 
42467 -4.36258e-16 138.352 
42469 -1.5 139.218 
42470 -0.5 139.218 
42473 -2 140.084 
42474 -1 140.084 
42475 -3.69296e-16 140.084 
42465 0.5 137.486 
42468 1 138.352 
42471 0.5 139.218 
42472 1.5 139.218 
42476 1 140.084 
42477 2 140.084 
ITEM: TIMESTEP
53000
ITEM: NUMBER OF ATOMS
15
ITEM: BOX BOUNDS ff fm pp
-4.1000000000000000e+01 4.1000000000000000e+01
0.0000000000000000e+00 2.0000000000000000e+02
-2.5000000000000000e-01 2.5000000000000000e-01
ITEM: ATOMS id x y 
42463 -5.19431e-16 136.489 
42464 -0.5 137.355 
42466 -1 138.221 
42467 -4.52366e-16 138.221 
42469 -1.5 139.087 
42470 -0.5 139.087 
42473 -2 139.953 
42474 -1 139.953 
42475 -3.853e-16 139.953 
42465 0.5 137.355 
42468 1 138.221 
42471 0.5 139.087 
42472 1.5 139.087 
42476 1 139.953 
42477 2 139.953 
ITEM: TIMESTEP
54000
ITEM: NUMBER OF ATOMS
15
ITEM: BOX BOUNDS ff fm pp
-4.1000000000000000e+01 4.1000000000000000e+01
0.0000000000000000e+00 2.0000000000000000e+02
-2.5000000000000000e-01 2.5000000000000000e-01
ITEM: ATOMS id x y 
42463 -5.3595e-16 136.355 
42464 -0.5 137.221 
42466 -1 138.087 
42467 -4.6878e-16 138.087 
42469 -1.5 138.953 
42470 -0.5 138.953 
42473 -2 139.819 
42474 -1 139.819 
42475 -4.0161e-16 139.819 
42465 0.5 137.221 
42468 1 138.087 
42471 0.5 138.953 
42472 1.5 138.953 
42476 1 139.819 
42477 2 139.819 
ITEM: TIMESTEP
55000
ITEM: NUMBER OF ATOMS
15
ITEM: BOX BOUNDS ff fm pp
-4.1000000000000000e+01 4.1000000000000000e+01
0.0000000000000000e+00 2.0000000000000000e+02
-2.5000000000000000e-01 2.5000000000000000e-01
ITEM: ATOMS id x y 
42463 -5.52774e-16 136.219 
42464 -0.5 137.085 
42466 -1 137.951 
42467 -4.85501e-16 137.951 
42469 -1.5 138.817 
42470 -0.5 138.817 
42473 -2 139.683 
42474 -1 139.683 
42475 -4.18227e-16 139.683 
42465 0.5 137.085 
42468 1 137.951 
42471 0.5 138.817 