LAMMPS (3 Mar 2020)
# Five large disc-shaped intruders dropping from a height onto a 2d bed of disc particles (d=0.5)
# Diameter of the intruders = 2.54
# Height of the intruders from the particle bed = 5.0
# Density of the intruders = 5 different values

dimension	2
atom_style	sphere
boundary	f fm p
newton		off
comm_modify	vel yes

read_data	data.final
  orthogonal box = (-41 0 -0.25) to (41 200 0.25)
  2 by 3 by 1 MPI processor grid
  reading atoms ...
  42477 atoms
  reading velocities ...
  42477 velocities
  read_data CPU = 4.21859 secs

neighbor	0.2 bin
neigh_modify	delay 0

group		remaining type 1
42462 atoms in group remaining
group		intruder type 2
15 atoms in group intruder
set 		type 1 density/disc 1.0	# The granular bed of particles
  42462 settings made for density/disc
set 		type 2 density/disc 200	# The intruders
  15 settings made for density/disc

# Different densities are assigned to the intruders (D = 2.54)


pair_style      gran/hertz/history 2.0e6 2.456e6 1000.0 1000.0 0.5 1
pair_coeff	* *

# timestep	0.00001
timestep	0.00005

fix     1 remaining nve/sphere disc
fix		2 all gravity 1.0 spherical 0.0 -180.0
fix     4 intruder rigid/nve single
1 rigid bodies with 15 atoms

fix             xwalls all wall/gran hertz/history 2.0e6 2.456e6 1000.0 1000.0 0.5 1                 xplane -41 41
fix		ywalls all wall/gran hertz/history 2.0e6 2.456e6 1000.0 1000.0 0.5 1 		yplane 0 NULL

dump            4a all custom 1000 dump.all id type x y vx vy fx fy omegaz diameter # Change the frequency of output according to the memory consumed by this file
dump            4b intruder custom 1000 dump.position id x y


compute 	101 all stress/atom NULL pair
compute 	102 all contact/atom
dump        133 intruder custom 1000 dump.intruder id type x y vx vy fx fy omegaz tqz c_101[1] c_101[2] c_101[4] c_102

fix         3 all enforce2d

compute		1 all erotate/sphere
thermo_style	custom step atoms ke c_1 vol
thermo		1000
thermo_modify	lost ignore norm no
compute_modify	thermo_temp dynamic/dof yes

run		10000000
Neighbor list info ...
  update every 1 steps, delay 0 steps, check yes
  max neighbors/atom: 2000, page size: 100000
  master list distance cutoff = 1.2
  ghost atom cutoff = 1.2
  binsize = 0.6, bins = 137 334 1
  2 neighbor lists, perpetual/occasional/extra = 1 1 0
  (1) pair gran/hertz/history, perpetual
      attributes: half, newton off, size, history
      pair build: half/size/bin/newtoff
      stencil: half/bin/2d/newtoff
      bin: standard
  (2) compute contact/atom, occasional
      attributes: half, newton off, size
      pair build: half/size/bin/newtoff
      stencil: half/bin/2d/newtoff
      bin: standard
Per MPI rank memory allocation (min/avg/max) = 16.76 | 17.35 | 18.46 Mbytes
Step Atoms KinEng c_1 Volume 
       0    42477 0.0083272227 4.7582332e-06        16400 
    1000    42477    4.6864908   0.38833451        16400 
    2000    42477    12.780666   0.19868834        16400 
    3000    42477    27.235632   0.12979851        16400 
    4000    42477    47.751115  0.093596564        16400 
    5000    42477    74.194423  0.069241527        16400 
    6000    42477    106.54814  0.054099574        16400 
    7000    42477    144.85776  0.043763034        16400 
    8000    42477     189.0239  0.034930107        16400 
    9000    42477    239.09388  0.028140315        16400 
   10000    42477    295.04328  0.024337602        16400 
   11000    42477    356.86163  0.019249599        16400 
   12000    42477    424.59736  0.016685484        16400 
   13000    42477    498.18555  0.013883979        16400 
   14000    42477    577.65523  0.011846171        16400 
   15000    42477    662.99233  0.010123168        16400 
   16000    42477    754.20905  0.008698654        16400 
   17000    42477    851.33302 0.0073522038        16400 
   18000    42477    954.36823 0.0061815881        16400 
   19000    42477    1063.3252 0.0053132331        16400 
   20000    42477    1178.1918  0.004653347        16400 
   21000    42477    1298.9523 0.0042076815        16400 
   22000    42477    1425.6146 0.0037563309        16400 
   23000    42477    1558.1839 0.0033287747        16400 
   24000    42477    1696.6366 0.0029249039        16400 
   25000    42477    1840.9876 0.0026402938        16400 
   26000    42477     1991.224 0.0023800284        16400 
   27000    42477    2147.3371 0.0021551841        16400 
   28000    42477    2309.3582 0.0019953888        16400 
   29000    42477    2477.2553 0.0018015268        16400 
   30000    42477    2651.0293 0.0017308947        16400 
   31000    42477    2830.6709 0.0016447487        16400 
   32000    42477    3016.1783  0.001664422        16400 
   33000    42477    3207.5652 0.0014443479        16400 
   34000    42477    3404.8421 0.0013180068        16400 
   35000    42477    3608.0213 0.0012349396        16400 
   36000    42477     3817.101 0.0011271846        16400 
   37000    42477    4032.0864 0.0010616113        16400 
   38000    42477    4252.9785 0.0010339299        16400 
   39000    42477    4479.7725 0.00088388523        16400 
   40000    42477    4712.4733 0.00092667122        16400 
   41000    42477    4951.0603 0.00083619758        16400 
   42000    42477    5195.5386 0.0007777012        16400 
   43000    42477    5445.9106 0.00077677646        16400 
   44000    42477    5702.1697 0.0007454247        16400 
   45000    42477    5964.3278 0.00074986285        16400 
   46000    42477    6232.3749 0.00067139745        16400 
   47000    42477    6506.2906 0.00071052483        16400 
   48000    42477    6786.0886 0.00065858428        16400 
   49000    42477    7071.7548 0.00061063141        16400 
   50000    42477     7363.301 0.00061978234        16400 
   51000    42477    7660.7339 0.00056800721        16400 
   52000    42477    7964.0449 0.00051609156        16400 
   53000    42477     8273.258 0.00048521528        16400 
   54000    42477    8588.3719 0.00045869975        16400 
   55000    42477    8909.3931 0.00044174367        16400 
   56000    42477    9236.3238 0.00044550593        16400 
   57000    42477    9569.1473 0.00045731017        16400 
   58000    42477    9907.8673 0.00040674193        16400 
   59000    42477    10252.479 0.00040670416        16400 
   60000    42477     10602.98 0.00037221151        16400 
   61000    42477    10959.384 0.00039188616        16400 
   62000    42477    11321.678 0.00040669949        16400 
   63000    42477    11689.858 0.00037088308        16400 
   64000    42477    12063.927 0.00040367776        16400 
   65000    42477    12443.866 0.00036393412        16400 
   66000    42477    12829.688 0.00039833775        16400 
   67000    42477     13221.39 0.00039824823        16400 
   68000    42477    13618.961 0.00032574867        16400 
   69000    42477    14022.423 0.00033466218        16400 
   70000    42477    14431.772 0.00033514926        16400 
   71000    42477    14847.021 0.00031004995        16400 
   72000    42477    15268.178 0.00028849888        16400 
   73000    42477    15695.232 0.00031638452        16400 
   74000    42477    16128.188 0.00029680509        16400 
   75000    42477    16567.038 0.00030071385        16400 
   76000    42477     17011.78 0.00029418016        16400 
   77000    42477    17462.422 0.00026532395        16400 
   78000    42477    17918.955 0.00026107009        16400 
   79000    42477    18381.382 0.00025180262        16400 
   80000    42477    18849.703 0.00027601972        16400 
   81000    42477    19323.906 0.00022666117        16400 
   82000    42477    19803.996 0.00023518924        16400 
   83000    42477    20289.965 0.00025837282        16400 
   84000    42477    20781.811 0.00021552036        16400 
   85000    42477    21279.535 0.00022632606        16400 
   86000    42477    21783.139 0.00022380567        16400 
   87000    42477    22292.633 0.00020914018        16400 
   88000    42477    22808.023 0.00021348912        16400 
   89000    42477    23329.311 0.00026054254        16400 
   90000    42477    23856.499 0.00027332409        16400 
   91000    42477    24389.585   0.00025076        16400 
   92000    42477    24928.567 0.00021358276        16400 
   93000    42477    25473.447 0.00018003141        16400 
   94000    42477    26024.219 0.00020634108        16400 
   95000    42477    26580.886 0.00019705869        16400 
   96000    42477    27143.449 0.00017894384        16400 
   97000    42477    27711.904 0.00016505685        16400 
   98000    42477     28286.25 0.0002019204        16400 
   99000    42477    28866.481 0.00018834354        16400 
  100000    42477    29452.592 0.00018580217        16400 
  101000    42477    30044.584 0.00020225257        16400 
  102000    42477    30642.456 0.0001902988        16400 
  103000    42477    31246.207 0.00019496779        16400 
  104000    42477    31855.845 0.0001824606        16400 
  105000    42477    32471.374   0.00018828        16400 
  106000    42477    33092.797 0.0001749411        16400 
  107000    42477     33720.12 0.00017521756        16400 
  108000    42477    34353.341 0.0001866526        16400 
  109000    42477    34992.457 0.00016605155        16400 
  110000    42477     35637.47 0.00017410002        16400 
  111000    42477    36288.376 0.00017965977        16400 
  112000    42477    36945.176 0.00018681337        16400 
  113000    42477    37607.873 0.00020179141        16400 
  114000    42477    38276.464 0.00024472588        16400 
  115000    42477    38950.947 0.00024004132        16400 
  116000    42477    39631.317 0.00027455969        16400 
  117000    42477    40317.571 0.00029481038        16400 
  118000    42477    41009.707 0.00029801921        16400 
  119000    42477    41707.723 0.00035278622        16400 
  120000    42477    42411.621 0.00040292282        16400 
  121000    42477    43121.402 0.00042381954        16400 
  122000    42477    43837.071 0.00021669873        16400 
  123000    42477    44558.634 0.00012413811        16400 
  124000    42477    45286.093 0.00013344142        16400 
  125000    42477    45978.304    2.6185355        16400 
  126000    42477    46509.201    26.658057        16400 
  127000    42477    47168.555    17.595315        16400 
  128000    42477     47831.36    16.875032        16400 
  129000    42477    48519.668    15.958468        16400 
  130000    42477      49229.4    15.213971        16400 
  131000    42477    49853.179    18.893795        16400 
  132000    42477    50483.005    25.834112        16400 
  133000    42477    51149.318    23.274325        16400 
  134000    42477     51732.14    27.343838        16400 
  135000    42477    52296.821    28.743834        16400 
  136000    42477    52882.859    31.819247        16400 
  137000    42477    53402.173    35.202382        16400 
  138000    42477    53895.152    32.191135        16400 
  139000    42477    54349.974    34.148993        16400 
  140000    42477    54747.995     45.03281        16400 
  141000    42477     55043.06    45.898399        16400 
  142000    42477    55537.544    38.411813        16400 
  143000    42477    56099.178    30.034828        16400 
  144000    42477    56470.769    43.280592        16400 
  145000    42477    57011.927    40.127166        16400 
  146000    42477    57507.056    38.515761        16400 
  147000    42477    58088.929    31.684795        16400 
  148000    42477    58617.194    35.121932        16400 
  149000    42477    59159.612    38.681941        16400 
  150000    42477     59531.93    50.509753        16400 
  151000    42477    59959.756    45.353906        16400 
  152000    42477    60563.214    39.718497        16400 
  153000    42477    61148.747    33.280232        16400 
  154000    42477    61554.086    44.540509        16400 
  155000    42477    61915.975    49.392081        16400 
  156000    42477    62434.209    41.827738        16400 
  157000    42477    63012.241    41.012039        16400 
  158000    42477     63602.16    45.783452        16400 
  159000    42477     64063.15    43.339123        16400 
  160000    42477    64607.917    43.248847        16400 
  161000    42477    65085.794    35.693139        16400 
  162000    42477    65416.706    47.934829        16400 
  163000    42477    65888.621    53.733868        16400 
  164000    42477    66357.193    52.375664        16400 
  165000    42477    66625.346    70.071969        16400 
  166000    42477    67067.889     54.61534        16400 
  167000    42477    67563.404    50.210511        16400 
  168000    42477    67937.752     49.30458        16400 
  169000    42477    68376.946    51.771416        16400 
  170000    42477    68905.626    50.406795        16400 
  171000    42477    69540.582    40.387136        16400 
  172000    42477    70008.375    56.978251        16400 
  173000    42477    70453.685    50.055193        16400 
  174000    42477    70893.979    45.319433        16400 
  175000    42477    71228.811    53.879661        16400 
  176000    42477    71533.875    55.825184        16400 
  177000    42477    71924.228    54.834426        16400 
  178000    42477    72294.183    57.998883        16400 
  179000    42477    72734.376    57.925659        16400 
  180000    42477    73112.189     59.57246        16400 
  181000    42477    73492.271    59.238073        16400 
  182000    42477    73845.285    64.362683        16400 
  183000    42477    74414.273    53.429067        16400 
  184000    42477    75038.885    46.318979        16400 
  185000    42477    75296.074    68.753702        16400 
  186000    42477    75614.459    68.956433        16400 
  187000    42477    76118.816    61.121056        16400 
  188000    42477    76650.136    49.519465        16400 
  189000    42477    76983.335    59.663637        16400 
  190000    42477    77289.554    70.061115        16400 
  191000    42477    77347.238    100.08441        16400 
  192000    42477     77506.33    77.164293        16400 
  193000    42477    77635.997    75.883522        16400 
  194000    42477    77912.703    75.364165        16400 
  195000    42477    78233.429    69.906319        16400 
  196000    42477    78578.015    67.532212        16400 
  197000    42477    79028.398    53.671052        16400 
  198000    42477    79152.238     73.75904        16400 
  199000    42477    79300.037    76.782984        16400 
  200000    42477    79183.777    98.244136        16400 
  201000    42477    79438.707     80.66079        16400 
  202000    42477    79639.107      81.8513        16400 
  203000    42477    79870.452    84.283957        16400 
  204000    42477    80048.723    79.958926        16400 
  205000    42477    80248.577    83.846578        16400 
  206000    42477    80648.253    68.928101        16400 
  207000    42477    81087.403    63.695343        16400 
  208000    42477     81463.31    66.479577        16400 
  209000    42477    81934.184    74.523037        16400 
  210000    42477    82331.984    75.343678        16400 
  211000    42477    82728.149    71.549891        16400 
  212000    42477    82961.907    84.572662        16400 
  213000    42477    82903.545    96.810854        16400 
  214000    42477     82726.73    112.10161        16400 
  215000    42477    83021.628    84.014893        16400 
  216000    42477    83435.158    64.533411        16400 
  217000    42477    83604.718    75.786511        16400 
  218000    42477    83562.712    97.291319        16400 
  219000    42477    83933.084    76.409573        16400 
  220000    42477     84353.15    71.737321        16400 
  221000    42477    84466.364    75.487208        16400 
  222000    42477     84653.11    80.032074        16400 
  223000    42477    84781.178    96.627972        16400 
  224000    42477    84611.998    85.532858        16400 
  225000    42477    84865.074    78.515901        16400 
  226000    42477    85113.865    77.383832        16400 
  227000    42477    85144.803    77.851722        16400 
  228000    42477    85126.589    96.837563        16400 
  229000    42477    85496.996    86.649379        16400 
  230000    42477    85954.348    75.256382        16400 
  231000    42477     86231.82    84.842898        16400 
  232000    42477    86417.087    76.090813        16400 
  233000    42477     86219.02    105.25994        16400 
  234000    42477    86053.963    113.86413        16400 
  235000    42477    86081.971    101.37511        16400 
  236000    42477    86476.305     73.07494        16400 
  237000    42477    86739.539    78.017305        16400 
  238000    42477    86968.196     77.42351        16400 
  239000    42477    87073.091    100.84663        16400 
  240000    42477    87323.195    84.683625        16400 
  241000    42477    87603.953    76.594727        16400 
  242000    42477    87557.852    106.61814        16400 
  243000    42477    87572.977    121.33716        16400 
  244000    42477    87723.895    99.334635        16400 
  245000    42477    87945.374     102.3586        16400 
  246000    42477    88271.468     82.78503        16400 
  247000    42477    88504.018    93.273045        16400 
  248000    42477     88901.65    82.960188        16400 
  249000    42477    89099.899      84.7475        16400 
  250000    42477    88899.441    117.60634        16400 
  251000    42477    88938.652      94.7226        16400 
  252000    42477    89244.352    92.582683        16400 
  253000    42477     89574.09    92.000929        16400 
  254000    42477    89970.036    74.853079        16400 
  255000    42477    90299.814    87.886276        16400 
  256000    42477    90499.559    90.057514        16400 
  257000    42477    90554.791    97.931858        16400 
  258000    42477    90845.931    95.401651        16400 
  259000    42477    91123.286     92.89076        16400 
  260000    42477    91212.288    96.467719        16400 
  261000    42477     91648.75    78.229533        16400 
  262000    42477    91955.829    79.484426        16400 
  263000    42477    91803.937    112.27378        16400 
  264000    42477    91632.264    114.84937        16400 
  265000    42477    91873.383    105.61144        16400 
  266000    42477    92093.528     105.7968        16400 
  267000    42477    92147.613    110.98674        16400 
  268000    42477    92415.721    97.040469        16400 
  269000    42477    92710.152    99.364667        16400 
  270000    42477    92969.594    94.518933        16400 
  271000    42477    93339.704    93.160887        16400 
  272000    42477    93675.333    105.63793        16400 
  273000    42477    93286.998    107.97029        16400 
  274000    42477    92917.479    129.39027        16400 
  275000    42477    93126.116    93.014291        16400 
  276000    42477     93183.32    105.07037        16400 
  277000    42477    93115.438    115.11048        16400 
  278000    42477    93169.379    101.95738        16400 
  279000    42477    93164.882    121.83243        16400 
  280000    42477    93434.909    98.740152        16400 
  281000    42477    93546.752      101.274        16400 
  282000    42477    93329.306    118.82854        16400 
  283000    42477    92891.284    122.21006        16400 
  284000    42477    92814.016    101.85913        16400 
  285000    42477    92300.622    119.58376        16400 
  286000    42477    91917.772    135.73277        16400 
  287000    42477    91674.105    133.90325        16400 
  288000    42477    91840.927    104.15476        16400 
  289000    42477    92196.702    104.48412        16400 
  290000    42477    92528.063    105.69292        16400 
  291000    42477    92641.644    103.89437        16400 
  292000    42477    92655.368    115.04049        16400 
  293000    42477    91926.581    141.99281        16400 
  294000    42477    91545.988    130.52854        16400 
  295000    42477    91339.381    149.06348        16400 
  296000    42477    90834.744    149.09301        16400 
  297000    42477    90733.605    119.08825        16400 
  298000    42477    90608.937    113.50764        16400 
  299000    42477    90350.806    120.60766        16400 
  300000    42477    90058.263    130.44287        16400 
  301000    42477    89941.678    145.23533        16400 
  302000    42477    89745.173    129.61456        16400 
  303000    42477    89784.968    109.84203        16400 
  304000    42477    89119.315    140.52274        16400 
  305000    42477    88648.485    127.58174        16400 
  306000    42477    88268.678    156.72699        16400 
  307000    42477    87734.452    135.74738        16400 
  308000    42477    87446.163    114.08829        16400 
  309000    42477    87211.487    107.01832        16400 
  310000    42477      86680.6    127.95679        16400 
  311000    42477    86372.014    140.18098        16400 
  312000    42477     86102.57    129.00869        16400 
  313000    42477    86182.442    115.88894        16400 
  314000    42477    86420.337    111.85534        16400 
  315000    42477    85760.684    139.14545        16400 
  316000    42477    85095.909    154.40478        16400 
  317000    42477    84087.953    174.97706        16400 
  318000    42477    83391.938    127.14741        16400 
  319000    42477    82764.682    136.39492        16400 
  320000    42477    81904.873     125.7442        16400 
  321000    42477    81162.398    162.86598        16400 
  322000    42477    80844.669    151.08875        16400 
  323000    42477    80853.686    106.19593        16400 
  324000    42477    80642.921    106.17231        16400 
  325000    42477     80548.01    96.883198        16400 
  326000    42477    80171.529    111.02577        16400 
  327000    42477    79156.124    158.38887        16400 
  328000    42477    78284.172    118.17735        16400 
  329000    42477    77170.078    137.20713        16400 
  330000    42477    76185.972    129.31122        16400 
  331000    42477    75815.381    108.90285        16400 
  332000    42477    75699.333    99.762186        16400 
  333000    42477    75384.669     102.2311        16400 
  334000    42477    74630.994    123.75893        16400 
  335000    42477    74277.897    146.20521        16400 
  336000    42477     73770.34    137.94181        16400 
  337000    42477    73368.679    115.16336        16400 
  338000    42477    72807.543    127.76328        16400 
  339000    42477    71797.255    117.14317        16400 
  340000    42477    70897.296    146.14395        16400 
  341000    42477    70071.136    136.45002        16400 
  342000    42477    69603.022    121.65712        16400 
  343000    42477    69012.702    118.77744        16400 
  344000    42477    68421.303    162.61571        16400 
  345000    42477    67680.869    111.77053        16400 
  346000    42477    66247.997    125.03283        16400 
  347000    42477    65049.733     130.5195        16400 
  348000    42477    64272.524    131.24505        16400 
  349000    42477     64075.79    94.894283        16400 
  350000    42477     63775.28    96.462231        16400 
  351000    42477     62943.45    108.01792        16400 
  352000    42477    61966.482    125.24074        16400 
  353000    42477     61028.08    136.25468        16400 
  354000    42477    60133.323    119.85447        16400 
  355000    42477     58920.03    137.62343        16400 
  356000    42477    58212.062    111.53551        16400 
  357000    42477    57407.846     150.1209        16400 
  358000    42477    56816.596    110.14088        16400 
  359000    42477    56209.158    96.360743        16400 
  360000    42477    55292.801    107.48671        16400 
  361000    42477    54585.648    100.02237        16400 
  362000    42477    53943.143    123.53693        16400 
  363000    42477    53093.336    104.76878        16400 
  364000    42477    52427.108     104.9313        16400 
  365000    42477    51829.243     94.44178        16400 
  366000    42477    51262.514    109.66718        16400 
  367000    42477    50671.781     97.06522        16400 
  368000    42477    49899.544    109.05803        16400 
  369000    42477    49213.232    106.21841        16400 
  370000    42477    48576.463    116.14441        16400 
  371000    42477    47799.674    119.82299        16400 
  372000    42477    47054.386    107.16537        16400 
  373000    42477    46297.781    94.703566        16400 
  374000    42477    45631.009     97.92631        16400 
  375000    42477    45151.563    93.350129        16400 
  376000    42477    44650.677    84.460104        16400 
  377000    42477    43856.897    88.256028        16400 
  378000    42477    43041.742    120.69814        16400 
  379000    42477    42345.532    94.745396        16400 
  380000    42477    41732.046    91.472229        16400 
  381000    42477    41257.452    93.836834        16400 
  382000    42477    40539.507    99.240575        16400 
  383000    42477    39638.782    96.051935        16400 
  384000    42477     38810.62    79.774032        16400 
  385000    42477    38421.214    90.006997        16400 
  386000    42477    37879.466    78.020695        16400 
  387000    42477    36920.075    95.824313        16400 
  388000    42477    36060.924    88.490098        16400 
  389000    42477    35343.336    116.68772        16400 
  390000    42477    35033.192    81.801213        16400 
  391000    42477    34649.497    103.05605        16400 
  392000    42477    34390.842     84.90042        16400 
  393000    42477    34138.425     66.88646        16400 
  394000    42477    33541.441    65.491183        16400 
  395000    42477    32882.948    78.133192        16400 
  396000    42477    32477.059    92.930867        16400 
  397000    42477    32004.406    82.245085        16400 
  398000    42477    31309.954    78.394843        16400 
  399000    42477    30362.413    88.983857        16400 
  400000    42477    29479.028    63.754221        16400 
  401000    42477    28593.093    74.661572        16400 
  402000    42477    27786.461    71.870963        16400 
  403000    42477    27368.887    74.215403        16400 
  404000    42477    26728.659     76.56108        16400 
  405000    42477    26121.579    67.751287        16400 
  406000    42477    25580.909    72.211018        16400 
  407000    42477    25086.266    77.423578        16400 
  408000    42477    24511.283    74.612162        16400 
  409000    42477    23564.266    54.276115        16400 
  410000    42477    22617.763    53.897666        16400 
  411000    42477    21876.169     68.70402        16400 
  412000    42477    21263.008    76.857578        16400 
  413000    42477      20612.8    68.821918        16400 
  414000    42477     20026.86    66.095407        16400 
  415000    42477    19582.099    57.785991        16400 
  416000    42477    19163.552    66.456497        16400 
  417000    42477    18782.325    55.810878        16400 
  418000    42477     18346.72    58.478559        16400 
  419000    42477    17704.466    52.749922        16400 
  420000    42477    17002.019    46.753533        16400 
  421000    42477    16315.031    56.562027        16400 
  422000    42477    15670.246     47.42137        16400 
  423000    42477    14937.254    44.406186        16400 
  424000    42477    14420.449    45.501891        16400 
  425000    42477    13980.022    42.593977        16400 
  426000    42477    13406.583    44.963938        16400 
  427000    42477    12838.471    42.238633        16400 
  428000    42477    12119.024    50.171818        16400 
  429000    42477    11368.667    51.695875        16400 
  430000    42477    10688.851    60.037491        16400 
  431000    42477    10196.276    74.439753        16400 
  432000    42477     9842.054    65.671992        16400 
  433000    42477    9629.7984    53.274571        16400 
  434000    42477    9467.2182     44.47504        16400 
  435000    42477     9193.782     36.77578        16400 
  436000    42477    8752.1658    42.642837        16400 
  437000    42477    8248.2117    41.158041        16400 
  438000    42477      7825.86    44.372665        16400 
  439000    42477    7342.4837    40.352183        16400 
  440000    42477    7026.8305    37.700905        16400 
  441000    42477    6800.1161    34.704319        16400 
  442000    42477    6699.4281    39.219607        16400 
  443000    42477    6492.6912    37.552046        16400 
  444000    42477    6161.1282    28.742288        16400 
  445000    42477     5646.818    26.815072        16400 
  446000    42477    5224.8017    33.670603        16400 
  447000    42477    4850.7535    35.930773        16400 
  448000    42477    4581.6398    27.061385        16400 
  449000    42477    4300.9153    29.116878        16400 
  450000    42477    4065.8616    31.028782        16400 
  451000    42477    3839.8596    24.990111        16400 
  452000    42477    3679.5017    30.668902        16400 
  453000    42477    3624.3573    31.552301        16400 
  454000    42477    3477.2809    23.019194        16400 
  455000    42477    3323.6964    24.377831        16400 
  456000    42477    3105.6403    19.510078        16400 
  457000    42477    2958.6297    19.392611        16400 
  458000    42477    2838.3492    24.847201        16400 
  459000    42477    2749.8191    17.967855        16400 
  460000    42477    2606.5493    15.490933        16400 
  461000    42477    2420.0893    10.951733        16400 
  462000    42477    2243.5548    12.671264        16400 
  463000    42477    2153.2937    18.829633        16400 
  464000    42477    2035.4153    12.979114        16400 
  465000    42477    1921.6214    14.130701        16400 
  466000    42477    1786.6543    14.329306        16400 
  467000    42477    1625.5194    10.642921        16400 
  468000    42477    1466.1585    9.4835072        16400 
  469000    42477    1286.5519    7.4901352        16400 
  470000    42477     1086.392    7.4351598        16400 
  471000    42477    903.75817    8.7175438        16400 
  472000    42477    788.46304    16.085809        16400 
  473000    42477    702.36997    12.312343        16400 
  474000    42477    630.18598    10.390549        16400 
  475000    42477    551.82927     9.054221        16400 
  476000    42477       479.62    8.2982944        16400 
  477000    42477    415.19281    6.8405348        16400 
  478000    42477    354.62444    5.7905444        16400 
  479000    42477    289.15411    4.5744173        16400 
  480000    42477    231.41564    4.2165679        16400 
  481000    42477    185.52774     5.516448        16400 
  482000    42477    147.06671    3.6791856        16400 
  483000    42477    110.20458    2.5530099        16400 
  484000    42477    81.434765     3.173268        16400 
  485000    42477    55.437616     2.276392        16400 
  486000    42477    38.683139    2.4321413        16400 
  487000    42477    31.428933    3.8938998        16400 
  488000    42477    24.697726    2.3916148        16400 
  489000    42477    18.753691    1.4177938        16400 
  490000    42477    21.046075    1.3300941        16400 
  491000    42477    25.540561   0.75327477        16400 
  492000    42477    30.484108   0.68285406        16400 
  493000    42477    34.829138   0.67836806        16400 
  494000    42477    37.520588   0.65751105        16400 
  495000    42477    37.927807   0.60816233        16400 
  496000    42477    37.076773   0.55098896        16400 
  497000    42477    35.275705   0.47579184        16400 
  498000    42477    32.067199   0.41107836        16400 
  499000    42477    27.570091   0.34332246        16400 
  500000    42477    23.000735   0.30395529        16400 
  501000    42477    19.061899   0.27484273        16400 
  502000    42477    15.147655   0.24950142        16400 
  503000    42477    11.239696   0.24027973        16400 
  504000    42477    7.7525271   0.23382989        16400 
  505000    42477    5.2793286   0.23646645        16400 
  506000    42477    4.4494083   0.99329099        16400 
  507000    42477    6.7222407   0.98698097        16400 
  508000    42477    6.8258468   0.62506167        16400 
  509000    42477     7.545271   0.42330958        16400 
  510000    42477    8.7075878   0.31058365        16400 
  511000    42477    10.859567   0.27297459        16400 
  512000    42477     12.96276   0.24236484        16400 
  513000    42477    14.822181   0.23810451        16400 
  514000    42477    15.890495   0.21572423        16400 
  515000    42477     15.90943   0.21580257        16400 
  516000    42477    14.854219   0.21071816        16400 
  517000    42477    13.052195   0.18934145        16400 
  518000    42477    10.832294     0.171409        16400 
  519000    42477     8.558735   0.15565622        16400 
  520000    42477    6.7955406   0.13984067        16400 
  521000    42477    5.8504796   0.13391694        16400 
  522000    42477    5.7432545    0.1364441        16400 
  523000    42477    6.2883296    0.1372845        16400 
  524000    42477    7.2318013   0.13729136        16400 
  525000    42477    8.1253694   0.13486699        16400 
  526000    42477    8.7446544   0.12953453        16400 
  527000    42477    9.0363702   0.11916352        16400 
  528000    42477    8.9169927   0.11303235        16400 
  529000    42477    8.5148379    0.1095703        16400 
  530000    42477    7.9315536   0.10560453        16400 
  531000    42477    7.2159914   0.11431001        16400 
  532000    42477    6.4919825    0.1187187        16400 
  533000    42477    5.6426615   0.18976854        16400 
  534000    42477    4.9538095   0.19137354        16400 
  535000    42477    4.4471258    0.1833755        16400 
  536000    42477    3.7381307    0.1399713        16400 
  537000    42477    3.7225444   0.13185806        16400 
  538000    42477    4.1927961   0.12326376        16400 
  539000    42477    5.0990449    0.1221806        16400 
  540000    42477    6.2994907   0.12482689        16400 
  541000    42477    7.5712394   0.12890108        16400 
  542000    42477      8.64185   0.12737291        16400 
  543000    42477    9.2689094   0.12740697        16400 
  544000    42477    9.2635209   0.12365298        16400 
  545000    42477    8.5634932   0.11461015        16400 
  546000    42477    7.2412459   0.10467679        16400 
  547000    42477    5.6202518  0.099525143        16400 
  548000    42477    4.0004127  0.097272821        16400 
  549000    42477    2.6007531  0.097546344        16400 
  550000    42477    1.5748375   0.10300725        16400 
  551000    42477     1.063023   0.10423698        16400 
  552000    42477    1.1098349   0.10368427        16400 
  553000    42477    1.6589851    0.0968802        16400 
  554000    42477    2.5836918  0.091825108        16400 
  555000    42477    3.6936832  0.086350738        16400 
  556000    42477    4.7856046  0.083635856        16400 
  557000    42477    5.6805031  0.054923464        16400 
  558000    42477    6.2063772  0.045750309        16400 
  559000    42477    6.2849016  0.046512553        16400 
  560000    42477    5.9378839  0.045403726        16400 
  561000    42477    5.2933235  0.043545823        16400 
  562000    42477    4.5697216  0.041231738        16400 
  563000    42477    3.9096193  0.038992726        16400 
  564000    42477     3.518678  0.029503513        16400 
  565000    42477     3.378136  0.029447462        16400 
  566000    42477    3.4772261  0.031146285        16400 
  567000    42477    3.7248253  0.032642532        16400 
  568000    42477    3.9940461   0.03357273        16400 
  569000    42477     4.164011  0.031174783        16400 
  570000    42477    4.1825092  0.031802073        16400 
  571000    42477    4.0476101  0.027081178        16400 
  572000    42477    3.7908067  0.024639959        16400 
  573000    42477    3.4339703  0.024255679        16400 
  574000    42477    3.0196214  0.025192007        16400 
  575000    42477    2.6061175  0.027256771        16400 
  576000    42477    2.2106845  0.034452216        16400 
  577000    42477    1.9609373  0.035534675        16400 
  578000    42477    1.8481493   0.03459548        16400 
  579000    42477    1.8989635  0.032463518        16400 
  580000    42477    2.1381903  0.026948239        16400 
  581000    42477    2.5778243  0.023523443        16400 
  582000    42477    3.1684966  0.023359986        16400 
  583000    42477    3.8199635  0.025414026        16400 
  584000    42477    4.4190206  0.028319727        16400 
  585000    42477    4.8464712  0.030159884        16400 
  586000    42477    5.0042065  0.030889601        16400 
  587000    42477    4.8118211  0.030025731        16400 
  588000    42477    4.3412638  0.027641698        16400 
  589000    42477    3.6690848   0.02554696        16400 
  590000    42477     2.929851  0.024601423        16400 
  591000    42477    2.2601528  0.023704237        16400 
  592000    42477     1.755232  0.024868849        16400 
  593000    42477    1.4797789  0.020218493        16400 
  594000    42477       1.4531  0.021506383        16400 
  595000    42477    1.6470985   0.02040167        16400 
  596000    42477     1.979047  0.020644894        16400 
  597000    42477    2.3534384  0.020315112        16400 
  598000    42477    2.6929942  0.020766132        16400 
  599000    42477    2.9193298  0.019693254        16400 
  600000    42477    3.0101182   0.01966409        16400 
  601000    42477    2.9478222  0.017567109        16400 
  602000    42477    2.7667268  0.016380243        16400 
  603000    42477    2.5404359  0.015568366        16400 
  604