ITEM: TIMESTEP
0
ITEM: NUMBER OF ATOMS
15
ITEM: BOX BOUNDS ff fm pp
-4.1000000000000000e+01 4.1000000000000000e+01
0.0000000000000000e+00 2.0000000000000000e+02
-2.5000000000000000e-01 2.5000000000000000e-01
ITEM: ATOMS id type x y 
42488 3 -12 136.536 
42489 3 -11 136.536 
42490 3 -10 136.536 
42491 3 -9 136.536 
42492 3 -8 136.536 
42484 3 -11.5 137.402 
42485 3 -10.5 137.402 
42486 3 -9.5 137.402 
42487 3 -8.5 137.402 
42481 3 -11 138.268 
42482 3 -10 138.268 
42483 3 -9 138.268 
42479 3 -10.5 139.134 
42480 3 -9.5 139.134 
42478 3 -10 140 
ITEM: TIMESTEP
10000
ITEM: NUMBER OF ATOMS
15
ITEM: BOX BOUNDS ff fm pp
-4.1000000000000000e+01 4.1000000000000000e+01
0.0000000000000000e+00 2.0000000000000000e+02
-2.5000000000000000e-01 2.5000000000000000e-01
ITEM: ATOMS id type x y 
42488 3 -12 136.411 
42489 3 -11 136.411 
42490 3 -10 136.411 
42491 3 -9 136.411 
42492 3 -8 136.411 
42484 3 -11.5 137.277 
42485 3 -10.5 137.277 
42486 3 -9.5 137.277 
42487 3 -8.5 137.277 
42481 3 -11 138.143 
42482 3 -10 138.143 
42483 3 -9 138.143 
42479 3 -10.5 139.009 
42480 3 -9.5 139.009 
42478 3 -10 139.875 
ITEM: TIMESTEP
20000
ITEM: NUMBER OF ATOMS
15
ITEM: BOX BOUNDS ff fm pp
-4.1000000000000000e+01 4.1000000000000000e+01
0.0000000000000000e+00 2.0000000000000000e+02
-2.5000000000000000e-01 2.5000000000000000e-01
ITEM: ATOMS id type x y 
42488 3 -12 136.036 
42489 3 -11 136.036 
42490 3 -10 136.036 
42491 3 -9 136.036 
42492 3 -8 136.036 
42484 3 -11.5 136.902 
42485 3 -10.5 136.902 
42486 3 -9.5 136.902 
42487 3 -8.5 136.902 
42481 3 -11 137.768 
42482 3 -10 137.768 
42483 3 -9 137.768 
42479 3 -10.5 138.634 
42480 3 -9.5 138.634 
42478 3 -10 139.5 
ITEM: TIMESTEP
30000
ITEM: NUMBER OF ATOMS
15
ITEM: BOX BOUNDS ff fm pp
-4.1000000000000000e+01 4.1000000000000000e+01
0.0000000000000000e+00 2.0000000000000000e+02
-2.5000000000000000e-01 2.5000000000000000e-01
ITEM: ATOMS id type x y 
42488 3 -12 135.411 
42489 3 -11 135.411 
42490 3 -10 135.411 
42491 3 -9 135.411 
42492 3 -8 135.411 
42484 3 -11.5 136.277 
42485 3 -10.5 136.277 
42486 3 -9.5 136.277 
42487 3 -8.5 136.277 
42481 3 -11 137.143 
42482 3 -10 137.143 
42483 3 -9 137.143 
42479 3 -10.5 138.009 
42480 3 -9.5 138.009 
42478 3 -10 138.875 
ITEM: TIMESTEP
40000
ITEM: NUMBER OF ATOMS
15
ITEM: BOX BOUNDS ff fm pp
-4.1000000000000000e+01 4.1000000000000000e+01
0.0000000000000000e+00 2.0000000000000000e+02
-2.5000000000000000e-01 2.5000000000000000e-01
ITEM: ATOMS id type x y 
42488 3 -12 134.536 
42489 3 -11 134.536 
42490 3 -10 134.536 
42491 3 -9 134.536 
42492 3 -8 134.536 
42484 3 -11.5 135.402 
42485 3 -10.5 135.402 
42486 3 -9.5 135.402 
42487 3 -8.5 135.402 
42481 3 -11 136.268 
42482 3 -10 136.268 
42483 3 -9 136.268 
42479 3 -10.5 137.134 
42480 3 -9.5 137.134 
42478 3 -10 138 
ITEM: TIMESTEP
50000
ITEM: NUMBER OF ATOMS
15
ITEM: BOX BOUNDS ff fm pp
-4.1000000000000000e+01 4.1000000000000000e+01
0.0000000000000000e+00 2.0000000000000000e+02
-2.5000000000000000e-01 2.5000000000000000e-01
ITEM: ATOMS id type x y 
42488 3 -12 133.411 
42489 3 -11 133.411 
42490 3 -10 133.411 
42491 3 -9 133.411 
42492 3 -8 133.411 
42484 3 -11.5 134.277 
42485 3 -10.5 134.277 
42486 3 -9.5 134.277 
42487 3 -8.5 134.277 
42481 3 -11 135.143 
42482 3 -10 135.143 
42483 3 -9 135.143 
42479 3 -10.5 136.009 
42480 3 -9.5 136.009 
42478 3 -10 136.875 
ITEM: TIMESTEP
60000
ITEM: NUMBER OF ATOMS
15
ITEM: BOX BOUNDS ff fm pp
-4.1000000000000000e+01 4.1000000000000000e+01
0.0000000000000000e+00 2.0000000000000000e+02
-2.5000000000000000e-01 2.5000000000000000e-01
ITEM: ATOMS id type x y 
42488 3 -12 132.036 
42489 3 -11 132.036 
42490 3 -10 132.036 
42491 3 -9 132.036 
42492 3 -8 132.036 
42484 3 -11.5 132.902 
42485 3 -10.5 132.902 
42486 3 -9.5 132.902 
42487 3 -8.5 132.902 
42481 3 -11 133.768 
42482 3 -10 133.768 
42483 3 -9 133.768 
42479 3 -10.5 134.634 
42480 3 -9.5 134.634 
42478 3 -10 135.5 
ITEM: TIMESTEP
70000
ITEM: NUMBER OF ATOMS
15
ITEM: BOX BOUNDS ff fm pp
-4.1000000000000000e+01 4.1000000000000000e+01
0.0000000000000000e+00 2.0000000000000000e+02
-2.5000000000000000e-01 2.5000000000000000e-01
ITEM: ATOMS id type x y 
42488 3 -12 130.411 
42489 3 -11 130.411 
42490 3 -10 130.411 
42491 3 -9 130.411 
42492 3 -8 130.411 
42484 3 -11.5 131.277 
42485 3 -10.5 131.277 
42486 3 -9.5 131.277 
42487 3 -8.5 131.277 
42481 3 -11 132.143 
42482 3 -10 132.143 
42483 3 -9 132.143 
42479 3 -10.5 133.009 
42480 3 -9.5 133.009 
42478 3 -10 133.875 
ITEM: TIMESTEP
80000
ITEM: NUMBER OF ATOMS
15
ITEM: BOX BOUNDS ff fm pp
-4.1000000000000000e+01 4.1000000000000000e+01
0.0000000000000000e+00 2.0000000000000000e+02
-2.5000000000000000e-01 2.5000000000000000e-01
ITEM: ATOMS id type x y 
42488 3 -12 128.536 
42489 3 -11 128.536 
42490 3 -10 128.536 
42491 3 -9 128.536 
42492 3 -8 128.536 
42484 3 -11.5 129.402 
42485 3 -10.5 129.402 
42486 3 -9.5 129.402 
42487 3 -8.5 129.402 
42481 3 -11 130.268 
42482 3 -10 130.268 
42483 3 -9 130.268 
42479 3 -10.5 131.134 
42480 3 -9.5 131.134 
42478 3 -10 132 
ITEM: TIMESTEP
90000
ITEM: NUMBER OF ATOMS
15
ITEM: BOX BOUNDS ff fm pp
-4.1000000000000000e+01 4.1000000000000000e+01
0.0000000000000000e+00 2.0000000000000000e+02
-2.5000000000000000e-01 2.5000000000000000e-01
ITEM: ATOMS id type x y 
42488 3 -12 126.411 
42489 3 -11 126.411 
42490 3 -10 126.411 
42491 3 -9 126.411 
42492 3 -8 126.411 
42484 3 -11.5 127.277 
42485 3 -10.5 127.277 
42486 3 -9.5 127.277 
42487 3 -8.5 127.277 
42481 3 -11 128.143 
42482 3 -10 128.143 
42483 3 -9 128.143 
42479 3 -10.5 129.009 
42480 3 -9.5 129.009 
42478 3 -10 129.875 
ITEM: TIMESTEP
100000
ITEM: NUMBER OF ATOMS
15
ITEM: BOX BOUNDS ff fm pp
-4.1000000000000000e+01 4.1000000000000000e+01
0.0000000000000000e+00 2.0000000000000000e+02
-2.5000000000000000e-01 2.5000000000000000e-01
ITEM: ATOMS id type x y 
42488 3 -12 124.036 
42489 3 -11 124.036 
42490 3 -10 124.036 
42491 3 -9 124.036 
42492 3 -8 124.036 
42484 3 -11.5 124.902 
42485 3 -10.5 124.902 
42486 3 -9.5 124.902 
42487 3 -8.5 124.902 
42481 3 -11 125.768 
42482 3 -10 125.768 
42483 3 -9 125.768 
42479 3 -10.5 126.634 
42480 3 -9.5 126.634 
42478 3 -10 127.5 
ITEM: TIMESTEP
110000
ITEM: NUMBER OF ATOMS
15
ITEM: BOX BOUNDS ff fm pp
-4.1000000000000000e+01 4.1000000000000000e+01
0.0000000000000000e+00 2.0000000000000000e+02
-2.5000000000000000e-01 2.5000000000000000e-01
ITEM: ATOMS id type x y 
42488 3 -12 121.411 
42489 3 -11 121.411 
42490 3 -10 121.411 
42491 3 -9 121.411 
42492 3 -8 121.411 
42484 3 -11.5 122.277 
42485 3 -10.5 122.277 
42486 3 -9.5 122.277 
42487 3 -8.5 122.277 
42481 3 -11 123.143 
42482 3 -10 123.143 
42483 3 -9 123.143 
42479 3 -10.5 124.009 
42480 3 -9.5 124.009 
42478 3 -10 124.875 
ITEM: TIMESTEP
120000
ITEM: NUMBER OF ATOMS
15
ITEM: BOX BOUNDS ff fm pp
-4.1000000000000000e+01 4.1000000000000000e+01
0.0000000000000000e+00 2.0000000000000000e+02
-2.5000000000000000e-01 2.5000000000000000e-01
ITEM: ATOMS id type x y 
42478 3 -9.96714 122.098 
42488 3 -12.0106 118.659 
42489 3 -11.0107 118.647 
42490 3 -10.0108 118.634 
42491 3 -9.01087 118.622 
42492 3 -8.01095 118.609 
42484 3 -11.4998 119.519 
42485 3 -10.4998 119.506 
42486 3 -9.49992 119.494 
42487 3 -8.5 119.481 
42481 3 -10.9889 120.379 
42482 3 -9.98897 120.366 
42483 3 -8.98905 120.353 
42479 3 -10.478 121.238 
42480 3 -9.4781 121.226 
ITEM: TIMESTEP
130000
ITEM: NUMBER OF ATOMS
15
ITEM: BOX BOUNDS ff fm pp
-4.1000000000000000e+01 4.1000000000000000e+01
0.0000000000000000e+00 2.0000000000000000e+02
-2.5000000000000000e-01 2.5000000000000000e-01
ITEM: ATOMS id type x y 
42488 3 -12.034 115.954 
42489 3 -11.0345 115.922 
42490 3 -10.035 115.89 
42491 3 -9.03555 115.858 
42492 3 -8.03606 115.826 
42484 3 -11.5064 116.804 
42485 3 -10.5069 116.772 
42486 3 -9.50746 116.739 
42487 3 -8.50797 116.707 
42481 3 -10.9789 117.653 
42482 3 -9.97937 117.621 
42483 3 -8.97988 117.589 
42479 3 -10.4513 118.503 
42480 3 -9.4518 118.47 
42478 3 -9.92371 119.352 
ITEM: TIMESTEP
140000
ITEM: NUMBER OF ATOMS
15
ITEM: BOX BOUNDS ff fm pp
-4.1000000000000000e+01 4.1000000000000000e+01
0.0000000000000000e+00 2.0000000000000000e+02
-2.5000000000000000e-01 2.5000000000000000e-01
ITEM: ATOMS id type x y 
42489 3 -11.0945 113.248 
42490 3 -10.0963 113.189 
42491 3 -9.09802 113.13 
42492 3 -8.09976 113.071 
42488 3 -12.0928 113.307 
42484 3 -11.5426 114.142 
42485 3 -10.5443 114.083 
42486 3 -9.54606 114.024 
42487 3 -8.5478 113.965 
42481 3 -10.9924 114.977 
42482 3 -9.9941 114.918 
42483 3 -8.99584 114.859 
42479 3 -10.4421 115.812 
42480 3 -9.44388 115.753 
42478 3 -9.89192 116.647 
ITEM: TIMESTEP
150000
ITEM: NUMBER OF ATOMS
15
ITEM: BOX BOUNDS ff fm pp
-4.1000000000000000e+01 4.1000000000000000e+01
0.0000000000000000e+00 2.0000000000000000e+02
-2.5000000000000000e-01 2.5000000000000000e-01
ITEM: ATOMS id type x y 
42488 3 -12.1744 110.826 
42489 3 -11.1789 110.732 
42490 3 -10.1833 110.637 
42491 3 -9.18781 110.543 
42492 3 -8.19228 110.448 
42486 3 -9.60378 111.452 
42487 3 -8.60825 111.358 
42484 3 -11.5948 111.641 
42485 3 -10.5993 111.546 
42481 3 -11.0153 112.456 
42482 3 -10.0198 112.361 
42483 3 -9.02423 112.267 
42480 3 -9.4402 113.176 
42479 3 -10.4357 113.271 
42478 3 -9.85618 114.086 
ITEM: TIMESTEP
160000
ITEM: NUMBER OF ATOMS
15
ITEM: BOX BOUNDS ff fm pp
-4.1000000000000000e+01 4.1000000000000000e+01
0.0000000000000000e+00 2.0000000000000000e+02
-2.5000000000000000e-01 2.5000000000000000e-01
ITEM: ATOMS id type x y 
42488 3 -12.2509 108.377 
42489 3 -11.258 108.258 
42490 3 -10.265 108.14 
42491 3 -9.27205 108.021 
42492 3 -8.27909 107.903 
42485 3 -10.6589 109.059 
42486 3 -9.66593 108.941 
42487 3 -8.67297 108.822 
42484 3 -11.6518 109.178 
42481 3 -11.0528 109.978 
42482 3 -10.0598 109.86 
42483 3 -9.06685 109.741 
42479 3 -10.4537 110.779 
42480 3 -9.46073 110.66 
42478 3 -9.85462 111.58 
ITEM: TIMESTEP
170000
ITEM: NUMBER OF ATOMS
15
ITEM: BOX BOUNDS ff fm pp
-4.1000000000000000e+01 4.1000000000000000e+01
0.0000000000000000e+00 2.0000000000000000e+02
-2.5000000000000000e-01 2.5000000000000000e-01
ITEM: ATOMS id type x y 
42492 3 -8.35845 105.359 
42488 3 -12.3203 105.91 
42489 3 -11.3299 105.772 
42490 3 -10.3394 105.634 
42491 3 -9.34892 105.496 
42485 3 -10.7153 106.561 
42486 3 -9.72486 106.423 
42487 3 -8.73439 106.285 
42484 3 -11.7058 106.698 
42483 3 -9.11034 107.212 
42481 3 -11.0913 107.487 
42482 3 -10.1008 107.35 
42479 3 -10.4768 108.276 
42480 3 -9.48628 108.138 
42478 3 -9.86223 109.065 
ITEM: TIMESTEP
180000
ITEM: NUMBER OF ATOMS
15
ITEM: BOX BOUNDS ff fm pp
-4.1000000000000000e+01 4.1000000000000000e+01
0.0000000000000000e+00 2.0000000000000000e+02
-2.5000000000000000e-01 2.5000000000000000e-01
ITEM: ATOMS id type x y 
42491 3 -9.44698 102.956 
42492 3 -8.45937 102.799 
42488 3 -12.4098 103.427 
42489 3 -11.4222 103.27 
42490 3 -10.4346 103.113 
42484 3 -11.7801 104.203 
42485 3 -10.7925 104.046 
42486 3 -9.80487 103.889 
42487 3 -8.81726 103.732 
42482 3 -10.1628 104.823 
42483 3 -9.17515 104.666 
42481 3 -11.1504 104.98 
42479 3 -10.5206 105.757 
42480 3 -9.53303 105.6 
42478 3 -9.89092 106.534 
ITEM: TIMESTEP
190000
ITEM: NUMBER OF ATOMS
15
ITEM: BOX BOUNDS ff fm pp
-4.1000000000000000e+01 4.1000000000000000e+01
0.0000000000000000e+00 2.0000000000000000e+02
-2.5000000000000000e-01 2.5000000000000000e-01
ITEM: ATOMS id type x y 
42490 3 -10.5296 100.58 
42491 3 -9.54328 100.416 
42492 3 -8.55693 100.251 
42488 3 -12.5023 100.909 
42489 3 -11.516 100.745 
42487 3 -8.90753 101.187 
42484 3 -11.8666 101.681 
42485 3 -10.8802 101.517 
42486 3 -9.89388 101.352 
42481 3 -11.2308 102.453 
42482 3 -10.2445 102.289 
42483 3 -9.25812 102.124 
42480 3 -9.60872 103.06 
42479 3 -10.5951 103.225 
42478 3 -9.95932 103.997 
ITEM: TIMESTEP
200000
ITEM: NUMBER OF ATOMS
15
ITEM: BOX BOUNDS ff fm pp
-4.1000000000000000e+01 4.1000000000000000e+01
0.0000000000000000e+00 2.0000000000000000e+02
-2.5000000000000000e-01 2.5000000000000000e-01
ITEM: ATOMS id type x y 
42489 3 -11.6073 98.1977 
42490 3 -10.6195 98.0415 
42491 3 -9.63182 97.8854 
42492 3 -8.64409 97.7292 
42488 3 -12.595 98.3539 
42486 3 -9.99043 98.8188 
42487 3 -9.0027 98.6626 
42484 3 -11.9659 99.1312 
42485 3 -10.9782 98.975 
42481 3 -11.3368 99.9085 
42482 3 -10.3491 99.7523 
42483 3 -9.36132 99.5961 
42480 3 -9.71994 100.53 
42479 3 -10.7077 100.686 
42478 3 -10.0786 101.463 
ITEM: TIMESTEP
210000
ITEM: NUMBER OF ATOMS
15
ITEM: BOX BOUNDS ff fm pp
-4.1000000000000000e+01 4.1000000000000000e+01
0.0000000000000000e+00 2.0000000000000000e+02
-2.5000000000000000e-01 2.5000000000000000e-01
ITEM: ATOMS id type x y 
42492 3 -8.71876 95.2069 
42488 3 -12.6846 95.7287 
42489 3 -11.6931 95.5982 
42490 3 -10.7017 95.4678 
42491 3 -9.71021 95.3373 
42485 3 -11.0844 96.3916 
42486 3 -10.093 96.2611 
42487 3 -9.10151 96.1307 
42484 3 -12.0759 96.5221 
42481 3 -11.4672 97.3154 
42482 3 -10.4757 97.185 
42483 3 -9.48427 97.0545 
42479 3 -10.8585 98.1088 
42480 3 -9.86703 97.9783 
42478 3 -10.2498 98.9022 
ITEM: TIMESTEP
220000
ITEM: NUMBER OF ATOMS
15
ITEM: BOX BOUNDS ff fm pp
-4.1000000000000000e+01 4.1000000000000000e+01
0.0000000000000000e+00 2.0000000000000000e+02
-2.5000000000000000e-01 2.5000000000000000e-01
ITEM: ATOMS id type x y 
42491 3 -9.79054 92.7755 
42492 3 -8.79497 92.6815 
42488 3 -12.7773 93.0574 
42489 3 -11.7817 92.9634 
42490 3 -10.7861 92.8694 
42484 3 -12.1981 93.8726 
42485 3 -11.2025 93.7786 
42486 3 -10.207 93.6846 
42487 3 -9.21138 93.5907 
42482 3 -10.6234 94.5938 
42483 3 -9.62779 94.4998 
42481 3 -11.6189 94.6878 
42479 3 -11.0398 95.5029 
42480 3 -10.0442 95.409 
42478 3 -10.4606 96.3181 
ITEM: TIMESTEP
230000
ITEM: NUMBER OF ATOMS
15
ITEM: BOX BOUNDS ff fm pp
-4.1000000000000000e+01 4.1000000000000000e+01
0.0000000000000000e+00 2.0000000000000000e+02
-2.5000000000000000e-01 2.5000000000000000e-01
ITEM: ATOMS id type x y 
42488 3 -12.8655 90.3216 
42489 3 -11.8664 90.2808 
42490 3 -10.8672 90.2399 
42491 3 -9.86803 90.199 
42492 3 -8.86886 90.1581 
42487 3 -9.33305 91.0439 
42484 3 -12.3305 91.1665 
42485 3 -11.3314 91.1256 
42486 3 -10.3322 91.0847 
42481 3 -11.7956 92.0113 
42482 3 -10.7964 91.9704 
42483 3 -9.79723 91.9296 
42479 3 -11.2606 92.8562 
42480 3 -10.2614 92.8153 
42478 3 -10.7256 93.701 
ITEM: TIMESTEP
240000
ITEM: NUMBER OF ATOMS
15
ITEM: BOX BOUNDS ff fm pp
-4.1000000000000000e+01 4.1000000000000000e+01
0.0000000000000000e+00 2.0000000000000000e+02
-2.5000000000000000e-01 2.5000000000000000e-01
ITEM: ATOMS id type x y 
42488 3 -12.9688 87.545 
42489 3 -11.969 87.566 
42490 3 -10.9693 87.5869 
42491 3 -9.96948 87.6079 
42492 3 -8.9697 87.6289 
42484 3 -12.4871 88.4213 
42485 3 -11.4873 88.4423 
42486 3 -10.4875 88.4632 
42487 3 -9.48775 88.4842 
42481 3 -12.0054 89.2976 
42482 3 -11.0056 89.3186 
42483 3 -10.0058 89.3395 
42479 3 -11.5236 90.1739 
42480 3 -10.5238 90.1948 
42478 3 -11.0419 91.0502 
ITEM: TIMESTEP
250000
ITEM: NUMBER OF ATOMS
15
ITEM: BOX BOUNDS ff fm pp
-4.1000000000000000e+01 4.1000000000000000e+01
0.0000000000000000e+00 2.0000000000000000e+02
-2.5000000000000000e-01 2.5000000000000000e-01
ITEM: ATOMS id type x y 
42488 3 -13.0907 84.6977 
42489 3 -12.0948 84.7875 
42490 3 -11.0988 84.8772 
42491 3 -10.1028 84.9669 
42492 3 -9.10686 85.0567 
42484 3 -12.6705 85.6051 
42485 3 -11.6745 85.6948 
42486 3 -10.6785 85.7846 
42487 3 -9.68256 85.8743 
42481 3 -12.2502 86.5125 
42482 3 -11.2542 86.6022 
42483 3 -10.2583 86.692 
42479 3 -11.8299 87.4198 
42480 3 -10.834 87.5096 
42478 3 -11.4097 88.3272 
ITEM: TIMESTEP
260000
ITEM: NUMBER OF ATOMS
15
ITEM: BOX BOUNDS ff fm pp
-4.1000000000000000e+01 4.1000000000000000e+01
0.0000000000000000e+00 2.0000000000000000e+02
-2.5000000000000000e-01 2.5000000000000000e-01
ITEM: ATOMS id type x y 
42488 3 -13.2358 81.7722 
42489 3 -12.2491 81.9347 
42490 3 -11.2624 82.0971 
42491 3 -10.2757 82.2596 
42492 3 -9.28898 82.422 
42484 3 -12.8832 82.7079 
42485 3 -11.8965 82.8704 
42486 3 -10.9097 83.0328 
42487 3 -9.92302 83.1953 
42481 3 -12.5305 83.6437 
42482 3 -11.5438 83.8061 
42483 3 -10.5571 83.9686 
42479 3 -12.1778 84.5794 
42480 3 -11.1911 84.7418 
42478 3 -11.8251 85.5151 
ITEM: TIMESTEP
270000
ITEM: NUMBER OF ATOMS
15
ITEM: BOX BOUNDS ff fm pp
-4.1000000000000000e+01 4.1000000000000000e+01
0.0000000000000000e+00 2.0000000000000000e+02
-2.5000000000000000e-01 2.5000000000000000e-01
ITEM: ATOMS id type x y 
42488 3 -13.424 78.7912 
42489 3 -12.4513 79.0233 
42490 3 -11.4786 79.2555 
42491 3 -10.5059 79.4876 
42484 3 -13.1386 79.7496 
42485 3 -12.166 79.9818 
42492 3 -9.53322 79.7197 
42481 3 -12.8533 80.708 
42486 3 -11.1933 80.2139 
42487 3 -10.2206 80.446 
42482 3 -11.8806 80.9402 
42483 3 -10.908 81.1723 
42479 3 -12.568 81.6664 
42480 3 -11.5953 81.8986 
42478 3 -12.2827 82.6249 
ITEM: TIMESTEP
280000
ITEM: NUMBER OF ATOMS
15
ITEM: BOX BOUNDS ff fm pp
-4.1000000000000000e+01 4.1000000000000000e+01
0.0000000000000000e+00 2.0000000000000000e+02
-2.5000000000000000e-01 2.5000000000000000e-01
ITEM: ATOMS id type x y 
42488 3 -13.6328 75.7303 
42489 3 -12.6829 76.0429 
42490 3 -11.733 76.3555 
42484 3 -13.4286 76.7092 
42485 3 -12.4787 77.0218 
42491 3 -10.7832 76.6681 
42492 3 -9.83328 76.9807 
42481 3 -13.2244 77.6881 
42486 3 -11.5288 77.3344 
42487 3 -10.5789 77.647 
42482 3 -12.2745 78.0007 
42483 3 -11.3246 78.3133 
42479 3 -13.0201 78.667 
42480 3 -12.0702 78.9796 
42478 3 -12.8159 79.6459 
ITEM: TIMESTEP
290000
ITEM: NUMBER OF ATOMS
15
ITEM: BOX BOUNDS ff fm pp
-4.1000000000000000e+01 4.1000000000000000e+01
0.0000000000000000e+00 2.0000000000000000e+02
-2.5000000000000000e-01 2.5000000000000000e-01
ITEM: ATOMS id type x y 
42488 3 -13.902 72.6608 
42489 3 -12.9789 73.0453 
42490 3 -12.0558 73.4298 
42484 3 -13.7734 73.6525 
42485 3 -12.8503 74.037 
42491 3 -11.1327 73.8143 
42492 3 -10.2095 74.1989 
42481 3 -13.6449 74.6441 
42486 3 -11.9272 74.4215 
42487 3 -11.0041 74.806 
42482 3 -12.7218 75.0287 
42483 3 -11.7986 75.4132 
42479 3 -13.5163 75.6358 
42480 3 -12.5932 76.0203 
42478 3 -13.3878 76.6275 
ITEM: TIMESTEP
300000
ITEM: NUMBER OF ATOMS
15
ITEM: BOX BOUNDS ff fm pp
-4.1000000000000000e+01 4.1000000000000000e+01
0.0000000000000000e+00 2.0000000000000000e+02
-2.5000000000000000e-01 2.5000000000000000e-01
ITEM: ATOMS id type x y 
42488 3 -14.2486 69.571 
42484 3 -14.1857 70.5689 
42489 3 -13.3528 70.0155 
42490 3 -12.4571 70.46 
42485 3 -13.2899 71.0135 
42491 3 -11.5613 70.9046 
42481 3 -14.1228 71.5669 
42486 3 -12.3942 71.458 
42492 3 -10.6655 71.3491 
42482 3 -13.227 72.0115 
42487 3 -11.4984 71.9026 
42479 3 -14.0599 72.5649 
42483 3 -12.3313 72.456 
42478 3 -13.997 73.5629 
42480 3 -13.1641 73.0095 
ITEM: TIMESTEP
310000
ITEM: NUMBER OF ATOMS
15
ITEM: BOX BOUNDS ff fm pp
-4.1000000000000000e+01 4.1000000000000000e+01
0.0000000000000000e+00 2.0000000000000000e+02
-2.5000000000000000e-01 2.5000000000000000e-01
ITEM: ATOMS id type x y 
42488 3 -14.6604 66.4306 
42489 3 -13.7963 66.934 
42484 3 -14.6643 67.4306 
42490 3 -12.9322 67.4374 
42485 3 -13.8002 67.934 
42491 3 -12.0682 67.9407 
42481 3 -14.6682 68.4306 
42486 3 -12.9361 68.4373 
42492 3 -11.2041 68.4441 
42482 3 -13.8041 68.9339 
42487 3 -12.0721 68.9407 
42479 3 -14.672 69.4305 
42480 3 -13.808 69.9339 
42483 3 -12.94 69.4373 
42478 3 -14.6759 70.4305 
ITEM: TIMESTEP
320000
ITEM: NUMBER OF ATOMS
15
ITEM: BOX BOUNDS ff fm pp
-4.1000000000000000e+01 4.1000000000000000e+01
0.0000000000000000e+00 2.0000000000000000e+02
-2.5000000000000000e-01 2.5000000000000000e-01
ITEM: ATOMS id type x y 
42488 3 -15.166 63.256 
42489 3 -14.3321 63.808 
42484 3 -15.227 64.2541 
42490 3 -13.4982 64.3599 
42485 3 -14.3931 64.8061 
42491 3 -12.6643 64.9118 
42481 3 -15.288 65.2522 
42486 3 -13.5592 65.358 
42492 3 -11.8304 65.4638 
42479 3 -15.3491 66.2504 
42482 3 -14.4542 65.8042 
42483 3 -13.6203 66.3561 
42487 3 -12.7254 65.9099 
42480 3 -14.5152 66.8023 
42478 3 -15.4101 67.2485 
ITEM: TIMESTEP
330000
ITEM: NUMBER OF ATOMS
15
ITEM: BOX BOUNDS ff fm pp
-4.1000000000000000e+01 4.1000000000000000e+01
0.0000000000000000e+00 2.0000000000000000e+02
-2.5000000000000000e-01 2.5000000000000000e-01
ITEM: ATOMS id type x y 
42488 3 -15.7269 60.0245 
42489 3 -14.9269 60.6245 
42484 3 -15.8465 61.0174 
42490 3 -14.1269 61.2245 
42481 3 -15.966 62.0102 
42485 3 -15.0465 61.6173 
42491 3 -13.3268 61.8244 
42482 3 -15.166 62.6101 
42486 3 -14.2464 62.2173 
42492 3 -12.5268 62.4244 
42479 3 -16.0856 63.003 
42483 3 -14.366 63.2101 
42487 3 -13.4464 62.8173 
42480 3 -15.2856 63.6029 
42478 3 -16.2052 63.9958 
ITEM: TIMESTEP
340000
ITEM: NUMBER OF ATOMS
15
ITEM: BOX BOUNDS ff fm pp
-4.1000000000000000e+01 4.1000000000000000e+01
0.0000000000000000e+00 2.0000000000000000e+02
-2.5000000000000000e-01 2.5000000000000000e-01
ITEM: ATOMS id type x y 
42488 3 -16.3533 56.7354 
42484 3 -16.5247 57.7205 
42489 3 -15.5858 57.3765 
42485 3 -15.7573 58.3617 
42490 3 -14.8184 58.0176 
42481 3 -16.6962 58.7057 
42486 3 -14.9898 59.0028 
42491 3 -14.0509 58.6587 
42479 3 -16.8677 59.6909 
42482 3 -15.9288 59.3468 
42487 3 -14.2224 59.6439 
42492 3 -13.2835 59.2998 
42480 3 -16.1003 60.332 
42483 3 -15.1613 59.9879 
42478 3 -17.0392 60.676 
ITEM: TIMESTEP
350000
ITEM: NUMBER OF ATOMS
15
ITEM: BOX BOUNDS ff fm pp
-4.1000000000000000e+01 4.1000000000000000e+01
0.0000000000000000e+00 2.0000000000000000e+02
-2.5000000000000000e-01 2.5000000000000000e-01
ITEM: ATOMS id type x y 
42488 3 -17.0763 53.4167 
42489 3 -16.3322 54.0847 
42484 3 -17.2827 54.3951 
42490 3 -15.588 54.7527 
42481 3 -17.4891 55.3736 
42485 3 -16.5386 55.0631 
42491 3 -14.8438 55.4207 
42482 3 -16.745 56.0416 
42486 3 -15.7944 55.7311 
42492 3 -14.0997 56.0887 
42479 3 -17.6956 56.352 
42483 3 -16.0008 56.7096 
42487 3 -15.0503 56.3992 
42478 3 -17.902 57.3305 
42480 3 -16.9514 57.02 
ITEM: TIMESTEP
360000
ITEM: NUMBER OF ATOMS
15
ITEM: BOX BOUNDS ff fm pp
-4.1000000000000000e+01 4.1000000000000000e+01
0.0000000000000000e+00 2.0000000000000000e+02
-2.5000000000000000e-01 2.5000000000000000e-01
ITEM: ATOMS id type x y 
42488 3 -17.8577 50.0637 
42489 3 -17.1315 50.7511 
42484 3 -18.0899 51.0363 
42485 3 -17.3637 51.7238 
42490 3 -16.4052 51.4386 
42481 3 -18.3221 52.009 
42486 3 -16.6374 52.4112 
42491 3 -15.679 52.126 
42479 3 -18.5543 52.9816 
42482 3 -17.5959 52.6964 
42487 3 -15.9112 53.0986 
42492 3 -14.9527 52.8134 
42480 3 -17.8281 53.6691 
42483 3 -16.8696 53.3839 
42478 3 -18.7865 53.9543 
ITEM: TIMESTEP
370000
ITEM: NUMBER OF ATOMS
15
ITEM: BOX BOUNDS ff fm pp
-4.1000000000000000e+01 4.1000000000000000e+01
0.0000000000000000e+00 2.0000000000000000e+02
-2.5000000000000000e-01 2.5000000000000000e-01
ITEM: ATOMS id type x y 
42488 3 -18.6885 46.6741 
42484 3 -18.9353 47.6431 
42489 3 -17.9727 47.3724 
42485 3 -18.2195 48.3414 
42490 3 -17.2569 48.0707 
42481 3 -19.1822 48.6122 
42491 3 -16.5411 48.769 
42482 3 -18.4664 49.3105 
42486 3 -17.5037 49.0398 
42492 3 -15.8253 49.4673 
42479 3 -19.429 49.5812 
42483 3 -17.7506 50.0088 
42487 3 -16.7879 49.7381 
42478 3 -19.6758 50.5503 
42480 3 -18.7132 50.2795 
ITEM: TIMESTEP
380000
ITEM: NUMBER OF ATOMS
15
ITEM: BOX BOUNDS ff fm pp
-4.1000000000000000e+01 4.1000000000000000e+01
0.0000000000000000e+00 2.0000000000000000e+02
-2.5000000000000000e-01 2.5000000000000000e-01
ITEM: ATOMS id type x y 
42488 3 -19.5129 43.2486 
42489 3 -18.8152 43.965 
42484 3 -19.7845 44.211 
42490 3 -18.1175 44.6814 
42481 3 -20.056 45.1734 
42485 3 -19.0868 44.9274 
42482 3 -19.3584 45.8898 
42486 3 -18.3891 45.6438 
42491 3 -17.4199 45.3978 
42479 3 -20.3276 46.1357 
42487 3 -17.6914 46.3602 
42492 3 -16.7222 46.1143 
42478 3 -20.5992 47.0981 
42480 3 -19.63 46.8522 
42483 3 -18.6607 46.6062 
ITEM: TIMESTEP
390000
ITEM: NUMBER OF ATOMS
15
ITEM: BOX BOUNDS ff fm pp
-4.1000000000000000e+01 4.1000000000000000e+01
0.0000000000000000e+00 2.0000000000000000e+02
-2.5000000000000000e-01 2.5000000000000000e-01
ITEM: ATOMS id type x y 
42488 3 -20.3936 39.802 
42484 3 -20.6727 40.7623 
42489 3 -19.7016 40.5239 
42485 3 -19.9807 41.4841 
42490 3 -19.0095 41.2457 
42481 3 -20.9518 41.7225 
42486 3 -19.2886 42.2059 
42491 3 -18.3175 41.9676 
42479 3 -21.2309 42.6827 
42482 3 -20.2598 42.4443 
42492 3 -17.6254 42.6894 
42480 3 -20.5389 43.4046 
42483 3 -19.5677 43.1662 
42487 3 -18.5966 42.9278 
42478 3 -21.51 43.643 
ITEM: TIMESTEP
400000
ITEM: NUMBER OF ATOMS
15
ITEM: BOX BOUNDS ff fm pp
-4.1000000000000000e+01 4.1000000000000000e+01
0.0000000000000000e+00 2.0000000000000000e+02
-2.5000000000000000e-01 2.5000000000000000e-01
ITEM: ATOMS id type x y 
42488 3 -21.2681 36.3526 
42484 3 -21.5595 37.3091 
42489 3 -20.5854 37.0833 
42485 3 -20.8769 38.0399 
42490 3 -19.9027 37.8141 
42481 3 -21.851 38.2657 
42491 3 -19.2201 38.5448 
42479 3 -22.1425 39.2223 
42482 3 -21.1684 38.9964 
42486 3 -20.1942 38.7706 
42492 3 -18.5374 39.2755 
42483 3 -20.4857 39.7272 
42487 3 -19.5115 39.5013 
42478 3 -22.434 40.1788 
42480 3 -21.4598 39.953 
ITEM: TIMESTEP
410000
ITEM: NUMBER OF ATOMS
15
ITEM: BOX BOUNDS ff fm pp
-4.1000000000000000e+01 4.1000000000000000e+01
0.0000000000000000e+00 2.0000000000000000e+02
-2.5000000000000000e-01 2.5000000000000000e-01
ITEM: ATOMS id type x y 
42488 3 -22.1334 32.9405 
42484 3 -22.4375 33.8931 
42489 3 -21.4604 33.6801 
42490 3 -20.7875 34.4198 
42481 3 -22.7415 34.8457 
42485 3 -21.7645 34.6327 
42482 3 -22.0685 35.5854 
42486 3 -21.0915 35.3724 
42491 3 -20.1145 35.1594 
42479 3 -23.0456 35.7984 
42487 3 -20.4185 36.1121 
42492 3 -19.4415 35.8991 
42478 3 -23.3496 36.751 
42480 3 -22.3726 36.538 
42483 3 -21.3956 36.325 
ITEM: TIMESTEP
420000
ITEM: NUMBER OF ATOMS
15
ITEM: BOX BOUNDS ff fm pp
-4.1000000000000000e+01 4.1000000000000000e+01
0.0000000000000000e+00 2.0000000000000000e+02
-2.5000000000000000e-01 2.5000000000000000e-01
ITEM: ATOMS id type x y 
42488 3 -22.9827 29.5485 
42489 3 -22.314 30.292 
42484 3 -23.2923 30.4993 
42481 3 -23.6019 31.4502 
42485 3 -22.6236 31.2429 
42490 3 -21.6453 31.0356 
42486 3 -21.9549 31.9864 
42491 3 -20.9767 31.7791 
42479 3 -23.9114 32.401 
42482 3 -22.9332 32.1937 
42492 3 -20.308 32.5227 
42480 3 -23.2428 33.1446 
42483 3 -22.2645 32.9373 
42487 3 -21.2862 32.73 
42478 3 -24.221 33.3519 
ITEM: TIMESTEP
430000
ITEM: NUMBER OF ATOMS
15
ITEM: BOX BOUNDS ff fm pp
-4.1000000000000000e+01 4.1000000000000000e+01
0.0000000000000000e+00 2.0000000000000000e+02
-2.5000000000000000e-01 2.5000000000000000e-01
ITEM: ATOMS id type x y 
42488 3 -23.7765 26.2082 
42484 3 -24.0889 27.1581 
42489 3 -23.11 26.9537 
42485 3 -23.4224 27.9036 
42490 3 -22.4435 27.6992 
42481 3 -24.4012 28.1081 
42491 3 -21.777 28.4446 
42479 3 -24.7136 29.058 
42482 3 -23.7347 28.8536 
42486 3 -22.7559 28.6491 
42483 3 -23.0682 29.599 
42487 3 -22.0893 29.3946 
42492 3 -21.1105 29.1901 
42478 3 -25.0259 30.008 
42480 3 -24.0471 29.8035 
ITEM: TIMESTEP
440000
ITEM: NUMBER OF ATOMS
15
ITEM: BOX BOUNDS ff fm pp
-4.1000000000000000e+01 4.1000000000000000e+01
0.0000000000000000e+00 2.0000000000000000e+02
-2.5000000000000000e-01 2.5000000000000000e-01
ITEM: ATOMS id type x y 
42488 3 -24.4431 22.9443 
42489 3 -23.7953 23.7061 
42484 3 -24.7789 23.8863 
42481 3 -25.1146 24.8282 
42485 3 -24.131 24.648 
42490 3 -23.1474 24.4678 
42486 3 -23.4832 25.4098 
42491 3 -22.4995 25.2296 
42479 3 -25.4504 25.7701 
42482 3 -24.4668 25.5899 
42492 3 -21.8517 25.9913 
42478 3 -25.7861 26.712 
42480 3 -24.8025 26.5319 
42483 3 -23.8189 26.3517 
42487 3 -22.8353 26.1715 
ITEM: TIMESTEP
450000
ITEM: NUMBER OF ATOMS
15
ITEM: BOX BOUNDS ff fm pp
-4.1000000000000000e+01 4.1000000000000000e+01
0.0000000000000000e+00 2.0000000000000000e+02
-2.5000000000000000e-01 2.5000000000000000e-01
ITEM: ATOMS id type x y 
42488 3 -25.0128 19.7289 
42484 3 -25.3737 20.6615 
42489 3 -24.3856 20.5078 
42490 3 -23.7584 21.2867 
42481 3 -25.7346 21.594 
42485 3 -24.7465 21.4404 
42482 3 -25.1075 22.3729 
42486 3 -24.1194 22.2192 
42491 3 -23.1313 22.0656 
42479 3 -26.0956 22.5266 
42487 3 -23.4922 22.9981 
42492 3 -22.5041 22.8445 
42478 3 -26.4565 23.4592 
42480 3 -25.4684 23.3055 
42483 3 -24.4803 23.1518 
ITEM: TIMESTEP
460000
ITEM: NUMBER OF ATOMS
15
ITEM: BOX BOUNDS ff fm pp
-4.1000000000000000e+01 4.1000000000000000e+01
0.0000000000000000e+00 2.0000000000000000e+02
-2.5000000000000000e-01 2.5000000000000000e-01
ITEM: ATOMS id type x y 
42488 3 -25.3715 16.6356 
42484 3 -25.7746 17.5507 
42489 3 -24.7805 17.4424 
42490 3 -24.1896 18.2491 
42481 3 -26.1778 18.4659 
42485 3 -25.1837 18.3575 
42479 3 -26.5809 19.381 
42482 3 -25.5868 19.2726 
42486 3 -24.5928 19.1642 
42491 3 -23.5987 19.0558 
42483 3 -24.9959 20.0793 
42487 3 -24.0018 19.9709 
42492 3 -23.0077 19.8625 
42478 3 -26.9841 20.2961 
42480 3 -25.99 20.1877 
ITEM: TIMESTEP
470000
ITEM: NUMBER OF ATOMS
15
ITEM: BOX BOUNDS ff fm pp
-4.1000000000000000e+01 4.1000000000000000e+01
0.0000000000000000e+00 2.0000000000000000e+02
-2.5000000000000000e-01 2.5000000000000000e-01
ITEM: ATOMS id type x y 
42488 3 -25.5972 13.7458 
42484 3 -26.0554 14.6347 
42489 3 -25.0566 14.5871 
42481 3 -26.5136 15.5235 
42485 3 -25.5148 15.4759 
42490 3 -24.5159 15.4284 
42479 3 -26.9719 16.4123 
42482 3 -25.973 16.3647 
42486 3 -24.9742 16.3172 
42491 3 -23.9753 16.2696 
42487 3 -24.4335 17.1584 
42492 3 -23.4347 17.1109 
42478 3 -27.4301 17.3011 
42480 3 -26.4312 17.2535 
42483 3 -25.4324 17.206 
ITEM: TIMESTEP
480000
ITEM: NUMBER OF ATOMS
15
ITEM: BOX BOUNDS ff fm pp
-4.1000000000000000e+01 4.1000000000000000e+01
0.0000000000000000e+00 2.0000000000000000e+02
-2.5000000000000000e-01 2.5000000000000000e-01
ITEM: ATOMS id type x y 
42488 3 -25.6055 11.5951 
42484 3 -26.0966 12.4661 
42489 3 -25.0967 12.4559 
42481 3 -26.5878 13.3372 
42485 3 -25.5878 13.327 
42490 3 -24.5879 13.3168 
42479 3 -27.0789 14.2082 
42482 3 -26.079 14.1981 
42486 3 -25.0791 14.1879 
42491 3 -24.0791 14.1777 
42478 3 -27.57 15.0793 
42480 3 -26.5701 15.0691 
42483 3 -25.5702 15.059 
42487 3 -24.5703 15.0488 
42492 3 -23.5703 15.0386 
ITEM: TIMESTEP
490000
ITEM: NUMBER OF ATOMS
15
ITEM: BOX BOUNDS ff fm pp
-4.1000000000000000e+01 4.1000000000000000e+01
0.0000000000000000e+00 2.0000000000000000e+02
-2.5000000000000000e-01 2.5000000000000000e-01