ITEM: TIMESTEP
0
ITEM: NUMBER OF ATOMS
15
ITEM: BOX BOUNDS ff fm pp
-4.1000000000000000e+01 4.1000000000000000e+01
0.0000000000000000e+00 2.0000000000000000e+02
-2.5000000000000000e-01 2.5000000000000000e-01
ITEM: ATOMS id type x y 
42473 2 -22 136.536 
42474 2 -21 136.536 
42475 2 -20 136.536 
42476 2 -19 136.536 
42477 2 -18 136.536 
42469 2 -21.5 137.402 
42470 2 -20.5 137.402 
42471 2 -19.5 137.402 
42472 2 -18.5 137.402 
42466 2 -21 138.268 
42467 2 -20 138.268 
42468 2 -19 138.268 
42464 2 -20.5 139.134 
42465 2 -19.5 139.134 
42463 2 -20 140 
ITEM: TIMESTEP
10000
ITEM: NUMBER OF ATOMS
15
ITEM: BOX BOUNDS ff fm pp
-4.1000000000000000e+01 4.1000000000000000e+01
0.0000000000000000e+00 2.0000000000000000e+02
-2.5000000000000000e-01 2.5000000000000000e-01
ITEM: ATOMS id type x y 
42473 2 -22 136.411 
42474 2 -21 136.411 
42475 2 -20 136.411 
42476 2 -19 136.411 
42477 2 -18 136.411 
42469 2 -21.5 137.277 
42470 2 -20.5 137.277 
42471 2 -19.5 137.277 
42472 2 -18.5 137.277 
42466 2 -21 138.143 
42467 2 -20 138.143 
42468 2 -19 138.143 
42464 2 -20.5 139.009 
42465 2 -19.5 139.009 
42463 2 -20 139.875 
ITEM: TIMESTEP
20000
ITEM: NUMBER OF ATOMS
15
ITEM: BOX BOUNDS ff fm pp
-4.1000000000000000e+01 4.1000000000000000e+01
0.0000000000000000e+00 2.0000000000000000e+02
-2.5000000000000000e-01 2.5000000000000000e-01
ITEM: ATOMS id type x y 
42473 2 -22 136.036 
42474 2 -21 136.036 
42475 2 -20 136.036 
42476 2 -19 136.036 
42477 2 -18 136.036 
42469 2 -21.5 136.902 
42470 2 -20.5 136.902 
42471 2 -19.5 136.902 
42472 2 -18.5 136.902 
42466 2 -21 137.768 
42467 2 -20 137.768 
42468 2 -19 137.768 
42464 2 -20.5 138.634 
42465 2 -19.5 138.634 
42463 2 -20 139.5 
ITEM: TIMESTEP
30000
ITEM: NUMBER OF ATOMS
15
ITEM: BOX BOUNDS ff fm pp
-4.1000000000000000e+01 4.1000000000000000e+01
0.0000000000000000e+00 2.0000000000000000e+02
-2.5000000000000000e-01 2.5000000000000000e-01
ITEM: ATOMS id type x y 
42473 2 -22 135.411 
42474 2 -21 135.411 
42475 2 -20 135.411 
42476 2 -19 135.411 
42477 2 -18 135.411 
42469 2 -21.5 136.277 
42470 2 -20.5 136.277 
42471 2 -19.5 136.277 
42472 2 -18.5 136.277 
42466 2 -21 137.143 
42467 2 -20 137.143 
42468 2 -19 137.143 
42464 2 -20.5 138.009 
42465 2 -19.5 138.009 
42463 2 -20 138.875 
ITEM: TIMESTEP
40000
ITEM: NUMBER OF ATOMS
15
ITEM: BOX BOUNDS ff fm pp
-4.1000000000000000e+01 4.1000000000000000e+01
0.0000000000000000e+00 2.0000000000000000e+02
-2.5000000000000000e-01 2.5000000000000000e-01
ITEM: ATOMS id type x y 
42473 2 -22 134.536 
42474 2 -21 134.536 
42475 2 -20 134.536 
42476 2 -19 134.536 
42477 2 -18 134.536 
42469 2 -21.5 135.402 
42470 2 -20.5 135.402 
42471 2 -19.5 135.402 
42472 2 -18.5 135.402 
42466 2 -21 136.268 
42467 2 -20 136.268 
42468 2 -19 136.268 
42464 2 -20.5 137.134 
42465 2 -19.5 137.134 
42463 2 -20 138 
ITEM: TIMESTEP
50000
ITEM: NUMBER OF ATOMS
15
ITEM: BOX BOUNDS ff fm pp
-4.1000000000000000e+01 4.1000000000000000e+01
0.0000000000000000e+00 2.0000000000000000e+02
-2.5000000000000000e-01 2.5000000000000000e-01
ITEM: ATOMS id type x y 
42473 2 -22 133.411 
42474 2 -21 133.411 
42475 2 -20 133.411 
42476 2 -19 133.411 
42477 2 -18 133.411 
42469 2 -21.5 134.277 
42470 2 -20.5 134.277 
42471 2 -19.5 134.277 
42472 2 -18.5 134.277 
42466 2 -21 135.143 
42467 2 -20 135.143 
42468 2 -19 135.143 
42464 2 -20.5 136.009 
42465 2 -19.5 136.009 
42463 2 -20 136.875 
ITEM: TIMESTEP
60000
ITEM: NUMBER OF ATOMS
15
ITEM: BOX BOUNDS ff fm pp
-4.1000000000000000e+01 4.1000000000000000e+01
0.0000000000000000e+00 2.0000000000000000e+02
-2.5000000000000000e-01 2.5000000000000000e-01
ITEM: ATOMS id type x y 
42473 2 -22 132.036 
42474 2 -21 132.036 
42475 2 -20 132.036 
42476 2 -19 132.036 
42477 2 -18 132.036 
42469 2 -21.5 132.902 
42470 2 -20.5 132.902 
42471 2 -19.5 132.902 
42472 2 -18.5 132.902 
42466 2 -21 133.768 
42467 2 -20 133.768 
42468 2 -19 133.768 
42464 2 -20.5 134.634 
42465 2 -19.5 134.634 
42463 2 -20 135.5 
ITEM: TIMESTEP
70000
ITEM: NUMBER OF ATOMS
15
ITEM: BOX BOUNDS ff fm pp
-4.1000000000000000e+01 4.1000000000000000e+01
0.0000000000000000e+00 2.0000000000000000e+02
-2.5000000000000000e-01 2.5000000000000000e-01
ITEM: ATOMS id type x y 
42473 2 -22 130.411 
42474 2 -21 130.411 
42475 2 -20 130.411 
42476 2 -19 130.411 
42477 2 -18 130.411 
42469 2 -21.5 131.277 
42470 2 -20.5 131.277 
42471 2 -19.5 131.277 
42472 2 -18.5 131.277 
42466 2 -21 132.143 
42467 2 -20 132.143 
42468 2 -19 132.143 
42464 2 -20.5 133.009 
42465 2 -19.5 133.009 
42463 2 -20 133.875 
ITEM: TIMESTEP
80000
ITEM: NUMBER OF ATOMS
15
ITEM: BOX BOUNDS ff fm pp
-4.1000000000000000e+01 4.1000000000000000e+01
0.0000000000000000e+00 2.0000000000000000e+02
-2.5000000000000000e-01 2.5000000000000000e-01
ITEM: ATOMS id type x y 
42473 2 -22 128.536 
42474 2 -21 128.536 
42475 2 -20 128.536 
42476 2 -19 128.536 
42477 2 -18 128.536 
42469 2 -21.5 129.402 
42470 2 -20.5 129.402 
42471 2 -19.5 129.402 
42472 2 -18.5 129.402 
42466 2 -21 130.268 
42467 2 -20 130.268 
42468 2 -19 130.268 
42464 2 -20.5 131.134 
42465 2 -19.5 131.134 
42463 2 -20 132 
ITEM: TIMESTEP
90000
ITEM: NUMBER OF ATOMS
15
ITEM: BOX BOUNDS ff fm pp
-4.1000000000000000e+01 4.1000000000000000e+01
0.0000000000000000e+00 2.0000000000000000e+02
-2.5000000000000000e-01 2.5000000000000000e-01
ITEM: ATOMS id type x y 
42473 2 -22 126.411 
42474 2 -21 126.411 
42475 2 -20 126.411 
42476 2 -19 126.411 
42477 2 -18 126.411 
42469 2 -21.5 127.277 
42470 2 -20.5 127.277 
42471 2 -19.5 127.277 
42472 2 -18.5 127.277 
42466 2 -21 128.143 
42467 2 -20 128.143 
42468 2 -19 128.143 
42464 2 -20.5 129.009 
42465 2 -19.5 129.009 
42463 2 -20 129.875 
ITEM: TIMESTEP
100000
ITEM: NUMBER OF ATOMS
15
ITEM: BOX BOUNDS ff fm pp
-4.1000000000000000e+01 4.1000000000000000e+01
0.0000000000000000e+00 2.0000000000000000e+02
-2.5000000000000000e-01 2.5000000000000000e-01
ITEM: ATOMS id type x y 
42473 2 -22 124.036 
42474 2 -21 124.036 
42475 2 -20 124.036 
42476 2 -19 124.036 
42477 2 -18 124.036 
42469 2 -21.5 124.902 
42470 2 -20.5 124.902 
42471 2 -19.5 124.902 
42472 2 -18.5 124.902 
42466 2 -21 125.768 
42467 2 -20 125.768 
42468 2 -19 125.768 
42464 2 -20.5 126.634 
42465 2 -19.5 126.634 
42463 2 -20 127.5 
ITEM: TIMESTEP
110000
ITEM: NUMBER OF ATOMS
15
ITEM: BOX BOUNDS ff fm pp
-4.1000000000000000e+01 4.1000000000000000e+01
0.0000000000000000e+00 2.0000000000000000e+02
-2.5000000000000000e-01 2.5000000000000000e-01
ITEM: ATOMS id type x y 
42473 2 -22 121.411 
42474 2 -21 121.411 
42475 2 -20 121.411 
42476 2 -19 121.411 
42477 2 -18 121.411 
42469 2 -21.5 122.277 
42470 2 -20.5 122.277 
42471 2 -19.5 122.277 
42472 2 -18.5 122.277 
42466 2 -21 123.143 
42467 2 -20 123.143 
42468 2 -19 123.143 
42464 2 -20.5 124.009 
42465 2 -19.5 124.009 
42463 2 -20 124.875 
ITEM: TIMESTEP
120000
ITEM: NUMBER OF ATOMS
15
ITEM: BOX BOUNDS ff fm pp
-4.1000000000000000e+01 4.1000000000000000e+01
0.0000000000000000e+00 2.0000000000000000e+02
-2.5000000000000000e-01 2.5000000000000000e-01
ITEM: ATOMS id type x y 
42473 2 -22.0017 118.602 
42474 2 -21.0017 118.603 
42475 2 -20.0017 118.605 
42476 2 -19.0017 118.606 
42477 2 -18.0017 118.607 
42469 2 -21.5028 119.469 
42470 2 -20.5028 119.47 
42471 2 -19.5028 119.471 
42472 2 -18.5028 119.472 
42466 2 -21.0038 120.335 
42467 2 -20.0038 120.337 
42468 2 -19.0038 120.338 
42464 2 -20.5049 121.202 
42465 2 -19.5049 121.203 
42463 2 -20.0059 122.069 
ITEM: TIMESTEP
130000
ITEM: NUMBER OF ATOMS
15
ITEM: BOX BOUNDS ff fm pp
-4.1000000000000000e+01 4.1000000000000000e+01
0.0000000000000000e+00 2.0000000000000000e+02
-2.5000000000000000e-01 2.5000000000000000e-01
ITEM: ATOMS id type x y 
42473 2 -22.0393 115.747 
42474 2 -21.0393 115.744 
42475 2 -20.0393 115.742 
42476 2 -19.0393 115.739 
42477 2 -18.0393 115.736 
42469 2 -21.537 116.612 
42470 2 -20.537 116.609 
42471 2 -19.537 116.606 
42472 2 -18.537 116.604 
42466 2 -21.0347 117.476 
42467 2 -20.0347 117.474 
42468 2 -19.0347 117.471 
42464 2 -20.5323 118.341 
42465 2 -19.5324 118.338 
42463 2 -20.03 119.206 
ITEM: TIMESTEP
140000
ITEM: NUMBER OF ATOMS
15
ITEM: BOX BOUNDS ff fm pp
-4.1000000000000000e+01 4.1000000000000000e+01
0.0000000000000000e+00 2.0000000000000000e+02
-2.5000000000000000e-01 2.5000000000000000e-01
ITEM: ATOMS id type x y 
42473 2 -22.0948 112.81 
42474 2 -21.0948 112.812 
42475 2 -20.0948 112.814 
42476 2 -19.0948 112.817 
42477 2 -18.0948 112.819 
42469 2 -21.5968 113.677 
42470 2 -20.5968 113.679 
42471 2 -19.5968 113.681 
42472 2 -18.5968 113.684 
42466 2 -21.0988 114.544 
42467 2 -20.0988 114.546 
42468 2 -19.0988 114.549 
42464 2 -20.6007 115.411 
42465 2 -19.6007 115.413 
42463 2 -20.1027 116.278 
ITEM: TIMESTEP
150000
ITEM: NUMBER OF ATOMS
15
ITEM: BOX BOUNDS ff fm pp
-4.1000000000000000e+01 4.1000000000000000e+01
0.0000000000000000e+00 2.0000000000000000e+02
-2.5000000000000000e-01 2.5000000000000000e-01
ITEM: ATOMS id type x y 
42473 2 -22.1605 109.863 
42474 2 -21.1611 109.898 
42475 2 -20.1617 109.933 
42476 2 -19.1623 109.967 
42477 2 -18.163 110.002 
42469 2 -21.6909 110.746 
42470 2 -20.6915 110.781 
42471 2 -19.6921 110.815 
42472 2 -18.6927 110.85 
42466 2 -21.2213 111.629 
42467 2 -20.2219 111.664 
42468 2 -19.2225 111.698 
42464 2 -20.7517 112.512 
42465 2 -19.7523 112.546 
42463 2 -20.2821 113.394 
ITEM: TIMESTEP
160000
ITEM: NUMBER OF ATOMS
15
ITEM: BOX BOUNDS ff fm pp
-4.1000000000000000e+01 4.1000000000000000e+01
0.0000000000000000e+00 2.0000000000000000e+02
-2.5000000000000000e-01 2.5000000000000000e-01
ITEM: ATOMS id type x y 
42473 2 -22.2665 106.876 
42474 2 -21.2691 106.949 
42475 2 -20.2717 107.021 
42476 2 -19.2743 107.093 
42477 2 -18.2769 107.165 
42469 2 -21.8302 107.776 
42470 2 -20.8328 107.848 
42471 2 -19.8354 107.921 
42472 2 -18.838 107.993 
42466 2 -21.394 108.676 
42467 2 -20.3966 108.748 
42468 2 -19.3992 108.82 
42464 2 -20.9577 109.576 
42465 2 -19.9603 109.648 
42463 2 -20.5215 110.476 
ITEM: TIMESTEP
170000
ITEM: NUMBER OF ATOMS
15
ITEM: BOX BOUNDS ff fm pp
-4.1000000000000000e+01 4.1000000000000000e+01
0.0000000000000000e+00 2.0000000000000000e+02
-2.5000000000000000e-01 2.5000000000000000e-01
ITEM: ATOMS id type x y 
42473 2 -22.4099 103.824 
42474 2 -21.4165 103.939 
42475 2 -20.4232 104.054 
42476 2 -19.4298 104.169 
42469 2 -22.0127 104.742 
42477 2 -18.4364 104.284 
42470 2 -21.0193 104.857 
42471 2 -20.0259 104.972 
42472 2 -19.0326 105.087 
42466 2 -21.6155 105.66 
42467 2 -20.6221 105.775 
42468 2 -19.6287 105.889 
42464 2 -21.2183 106.577 
42465 2 -20.2249 106.692 
42463 2 -20.821 107.495 
ITEM: TIMESTEP
180000
ITEM: NUMBER OF ATOMS
15
ITEM: BOX BOUNDS ff fm pp
-4.1000000000000000e+01 4.1000000000000000e+01
0.0000000000000000e+00 2.0000000000000000e+02
-2.5000000000000000e-01 2.5000000000000000e-01
ITEM: ATOMS id type x y 
42473 2 -22.5899 100.716 
42474 2 -21.6027 100.876 
42475 2 -20.6155 101.035 
42476 2 -19.6284 101.195 
42469 2 -22.2345 101.651 
42477 2 -18.6412 101.354 
42470 2 -21.2474 101.81 
42471 2 -20.2602 101.97 
42472 2 -19.273 102.13 
42466 2 -21.8792 102.585 
42467 2 -20.892 102.745 
42468 2 -19.9048 102.905 
42464 2 -21.5238 103.52 
42465 2 -20.5367 103.68 
42463 2 -21.1685 104.455 
ITEM: TIMESTEP
190000
ITEM: NUMBER OF ATOMS
15
ITEM: BOX BOUNDS ff fm pp
-4.1000000000000000e+01 4.1000000000000000e+01
0.0000000000000000e+00 2.0000000000000000e+02
-2.5000000000000000e-01 2.5000000000000000e-01
ITEM: ATOMS id type x y 
42473 2 -22.8441 97.602 
42474 2 -21.8621 97.7913 
42475 2 -20.8802 97.9805 
42476 2 -19.8983 98.1698 
42469 2 -22.517 98.547 
42470 2 -21.535 98.7362 
42477 2 -18.9163 98.359 
42471 2 -20.5531 98.9255 
42472 2 -19.5712 99.1147 
42466 2 -22.1899 99.492 
42467 2 -21.208 99.6812 
42468 2 -20.226 99.8705 
42464 2 -21.8628 100.437 
42465 2 -20.8809 100.626 
42463 2 -21.5358 101.382 
ITEM: TIMESTEP
200000
ITEM: NUMBER OF ATOMS
15
ITEM: BOX BOUNDS ff fm pp
-4.1000000000000000e+01 4.1000000000000000e+01
0.0000000000000000e+00 2.0000000000000000e+02
-2.5000000000000000e-01 2.5000000000000000e-01
ITEM: ATOMS id type x y 
42473 2 -23.1625 94.4737 
42474 2 -22.1859 94.6885 
42475 2 -21.2093 94.9034 
42476 2 -20.2326 95.1182 
42469 2 -22.8603 95.4269 
42470 2 -21.8836 95.6417 
42477 2 -19.256 95.333 
42466 2 -22.558 96.3801 
42471 2 -20.907 95.8565 
42472 2 -19.9303 96.0714 
42467 2 -21.5814 96.5949 
42468 2 -20.6047 96.8097 
42464 2 -22.2557 97.3333 
42465 2 -21.2791 97.5481 
42463 2 -21.9535 98.2865 
ITEM: TIMESTEP
210000
ITEM: NUMBER OF ATOMS
15
ITEM: BOX BOUNDS ff fm pp
-4.1000000000000000e+01 4.1000000000000000e+01
0.0000000000000000e+00 2.0000000000000000e+02
-2.5000000000000000e-01 2.5000000000000000e-01
ITEM: ATOMS id type x y 
42473 2 -23.5269 91.3082 
42474 2 -22.5571 91.5524 
42475 2 -21.5874 91.7966 
42476 2 -20.6177 92.0407 
42469 2 -23.2535 92.2701 
42470 2 -22.2837 92.5143 
42471 2 -21.314 92.7584 
42477 2 -19.648 92.2849 
42466 2 -22.98 93.232 
42472 2 -20.3443 93.0026 
42467 2 -22.0103 93.4761 
42468 2 -21.0406 93.7203 
42464 2 -22.7066 94.1938 
42465 2 -21.7369 94.438 
42463 2 -22.4332 95.1557 
ITEM: TIMESTEP
220000
ITEM: NUMBER OF ATOMS
15
ITEM: BOX BOUNDS ff fm pp
-4.1000000000000000e+01 4.1000000000000000e+01
0.0000000000000000e+00 2.0000000000000000e+02
-2.5000000000000000e-01 2.5000000000000000e-01
ITEM: ATOMS id type x y 
42473 2 -23.9492 88.0928 
42474 2 -22.9862 88.3624 
42469 2 -23.7011 89.0615 
42475 2 -22.0232 88.632 
42476 2 -21.0602 88.9015 
42477 2 -20.0973 89.1711 
42470 2 -22.7382 89.3311 
42471 2 -21.7752 89.6007 
42466 2 -23.4531 90.0303 
42467 2 -22.4901 90.2998 
42472 2 -20.8122 89.8703 
42468 2 -21.5271 90.5694 
42464 2 -23.2051 90.999 
42465 2 -22.2421 91.2686 
42463 2 -22.957 91.9677 
ITEM: TIMESTEP
230000
ITEM: NUMBER OF ATOMS
15
ITEM: BOX BOUNDS ff fm pp
-4.1000000000000000e+01 4.1000000000000000e+01
0.0000000000000000e+00 2.0000000000000000e+02
-2.5000000000000000e-01 2.5000000000000000e-01
ITEM: ATOMS id type x y 
42473 2 -24.4285 84.853 
42474 2 -23.4728 85.1475 
42475 2 -22.5172 85.442 
42469 2 -24.2057 85.8279 
42470 2 -23.25 86.1224 
42476 2 -21.5615 85.7366 
42477 2 -20.6059 86.0311 
42471 2 -22.2944 86.4169 
42472 2 -21.3387 86.7114 
42466 2 -23.9829 86.8027 
42467 2 -23.0273 87.0972 
42468 2 -22.0716 87.3917 
42464 2 -23.7601 87.7776 
42465 2 -22.8045 88.0721 
42463 2 -23.5374 88.7524 
ITEM: TIMESTEP
240000
ITEM: NUMBER OF ATOMS
15
ITEM: BOX BOUNDS ff fm pp
-4.1000000000000000e+01 4.1000000000000000e+01
0.0000000000000000e+00 2.0000000000000000e+02
-2.5000000000000000e-01 2.5000000000000000e-01
ITEM: ATOMS id type x y 
42473 2 -24.9471 81.6021 
42474 2 -24.0028 81.9312 
42475 2 -23.0585 82.2602 
42469 2 -24.7599 82.5844 
42470 2 -23.8156 82.9135 
42476 2 -22.1142 82.5893 
42477 2 -21.1699 82.9184 
42466 2 -24.5727 83.5667 
42471 2 -22.8713 83.2425 
42472 2 -21.927 83.5716 
42467 2 -23.6284 83.8958 
42468 2 -22.6841 84.2249 
42464 2 -24.3856 84.549 
42465 2 -23.4413 84.8781 
42463 2 -24.1984 85.5313 
ITEM: TIMESTEP
250000
ITEM: NUMBER OF ATOMS
15
ITEM: BOX BOUNDS ff fm pp
-4.1000000000000000e+01 4.1000000000000000e+01
0.0000000000000000e+00 2.0000000000000000e+02
-2.5000000000000000e-01 2.5000000000000000e-01
ITEM: ATOMS id type x y 
42473 2 -25.5235 78.3517 
42474 2 -24.5894 78.7089 
42469 2 -25.3657 79.3392 
42475 2 -23.6554 79.066 
42476 2 -22.7213 79.4232 
42470 2 -24.4317 79.6963 
42471 2 -23.4976 80.0535 
42477 2 -21.7873 79.7803 
42466 2 -25.208 80.3266 
42467 2 -24.2739 80.6838 
42472 2 -22.5636 80.4106 
42464 2 -25.0503 81.3141 
42468 2 -23.3399 81.0409 
42465 2 -24.1162 81.6713 
42463 2 -24.8925 82.3016 
ITEM: TIMESTEP
260000
ITEM: NUMBER OF ATOMS
15
ITEM: BOX BOUNDS ff fm pp
-4.1000000000000000e+01 4.1000000000000000e+01
0.0000000000000000e+00 2.0000000000000000e+02
-2.5000000000000000e-01 2.5000000000000000e-01
ITEM: ATOMS id type x y 
42473 2 -26.1319 75.0878 
42474 2 -25.2123 75.4806 
42475 2 -24.2927 75.8735 
42469 2 -26.0123 76.0806 
42470 2 -25.0927 76.4734 
42476 2 -23.3731 76.2663 
42466 2 -25.8927 77.0734 
42471 2 -24.1731 76.8663 
42477 2 -22.4535 76.6592 
42467 2 -24.9731 77.4662 
42472 2 -23.2535 77.2591 
42464 2 -25.7731 78.0662 
42468 2 -24.0535 77.8591 
42465 2 -24.8535 78.459 
42463 2 -25.6535 79.059 
ITEM: TIMESTEP
270000
ITEM: NUMBER OF ATOMS
15
ITEM: BOX BOUNDS ff fm pp
-4.1000000000000000e+01 4.1000000000000000e+01
0.0000000000000000e+00 2.0000000000000000e+02
-2.5000000000000000e-01 2.5000000000000000e-01
ITEM: ATOMS id type x y 
42473 2 -26.7692 71.8288 
42474 2 -25.866 72.258 
42469 2 -26.6894 72.8255 
42475 2 -24.9629 72.6873 
42470 2 -25.7862 73.2548 
42476 2 -24.0597 73.1166 
42477 2 -23.1565 73.5459 
42466 2 -26.6096 73.8223 
42471 2 -24.883 73.6841 
42472 2 -23.9799 74.1134 
42467 2 -25.7064 74.2516 
42468 2 -24.8032 74.6809 
42464 2 -26.5297 74.8191 
42465 2 -25.6266 75.2484 
42463 2 -26.4499 75.8159 
ITEM: TIMESTEP
280000
ITEM: NUMBER OF ATOMS
15
ITEM: BOX BOUNDS ff fm pp
-4.1000000000000000e+01 4.1000000000000000e+01
0.0000000000000000e+00 2.0000000000000000e+02
-2.5000000000000000e-01 2.5000000000000000e-01
ITEM: ATOMS id type x y 
42473 2 -27.4467 68.6015 
42474 2 -26.5614 69.0664 
42469 2 -27.4067 69.6007 
42475 2 -25.676 69.5313 
42470 2 -26.5213 70.0656 
42471 2 -25.6359 70.5305 
42476 2 -24.7906 69.9962 
42477 2 -23.9053 70.4611 
42466 2 -27.3666 70.5999 
42467 2 -26.4812 71.0648 
42472 2 -24.7506 70.9954 
42464 2 -27.3265 71.5991 
42468 2 -25.5958 71.5297 
42465 2 -26.4411 72.064 
42463 2 -27.2864 72.5982 
ITEM: TIMESTEP
290000
ITEM: NUMBER OF ATOMS
15
ITEM: BOX BOUNDS ff fm pp
-4.1000000000000000e+01 4.1000000000000000e+01
0.0000000000000000e+00 2.0000000000000000e+02
-2.5000000000000000e-01 2.5000000000000000e-01
ITEM: ATOMS id type x y 
42473 2 -28.146 65.4242 
42469 2 -28.1438 66.4242 
42474 2 -27.2788 65.9223 
42475 2 -26.4117 66.4204 
42470 2 -27.2766 66.9223 
42476 2 -25.5446 66.9185 
42466 2 -28.1415 67.4242 
42471 2 -26.4095 67.4204 
42477 2 -24.6775 67.4166 
42467 2 -27.2744 67.9223 
42472 2 -25.5424 67.9185 
42464 2 -28.1393 68.4241 
42468 2 -26.4073 68.4204 
42465 2 -27.2722 68.9222 
42463 2 -28.1371 69.4241 
ITEM: TIMESTEP
300000
ITEM: NUMBER OF ATOMS
15
ITEM: BOX BOUNDS ff fm pp
-4.1000000000000000e+01 4.1000000000000000e+01
0.0000000000000000e+00 2.0000000000000000e+02
-2.5000000000000000e-01 2.5000000000000000e-01
ITEM: ATOMS id type x y 
42473 2 -28.9033 62.3386 
42469 2 -28.9164 63.3385 
42474 2 -28.0439 62.8499 
42475 2 -27.1845 63.3613 
42470 2 -28.057 63.8498 
42476 2 -26.3251 63.8726 
42466 2 -28.9295 64.3384 
42471 2 -27.1976 64.3612 
42477 2 -25.4657 64.3839 
42467 2 -28.0701 64.8497 
42472 2 -26.3382 64.8725 
42464 2 -28.9426 65.3383 
42468 2 -27.2107 65.361 
42463 2 -28.9557 66.3382 
42465 2 -28.0832 65.8496 
ITEM: TIMESTEP
310000
ITEM: NUMBER OF ATOMS
15
ITEM: BOX BOUNDS ff fm pp
-4.1000000000000000e+01 4.1000000000000000e+01
0.0000000000000000e+00 2.0000000000000000e+02
-2.5000000000000000e-01 2.5000000000000000e-01
ITEM: ATOMS id type x y 
42473 2 -29.6881 59.2931 
42469 2 -29.7059 60.293 
42474 2 -28.8311 59.8085 
42475 2 -27.9742 60.3239 
42470 2 -28.849 60.8084 
42476 2 -27.1172 60.8393 
42466 2 -29.7238 61.2928 
42471 2 -27.992 61.3238 
42477 2 -26.2603 61.3547 
42467 2 -28.8669 61.8082 
42472 2 -27.1351 61.8392 
42464 2 -29.7417 62.2926 
42468 2 -28.0099 62.3236 
42463 2 -29.7595 63.2924 
42465 2 -28.8847 62.808 
ITEM: TIMESTEP
320000
ITEM: NUMBER OF ATOMS
15
ITEM: BOX BOUNDS ff fm pp
-4.1000000000000000e+01 4.1000000000000000e+01
0.0000000000000000e+00 2.0000000000000000e+02
-2.5000000000000000e-01 2.5000000000000000e-01
ITEM: ATOMS id type x y 
42473 2 -30.4695 56.305 
42469 2 -30.484 57.3049 
42474 2 -29.6108 56.8176 
42475 2 -28.7522 57.3302 
42470 2 -29.6254 57.8175 
42476 2 -27.8935 57.8428 
42466 2 -30.4986 58.3048 
42471 2 -28.7668 58.3301 
42477 2 -27.0349 58.3554 
42467 2 -29.64 58.8174 
42472 2 -27.9081 58.8426 
42464 2 -30.5132 59.3046 
42468 2 -28.7813 59.3299 
42463 2 -30.5278 60.3045 
42465 2 -29.6546 59.8172 
ITEM: TIMESTEP
330000
ITEM: NUMBER OF ATOMS
15
ITEM: BOX BOUNDS ff fm pp
-4.1000000000000000e+01 4.1000000000000000e+01
0.0000000000000000e+00 2.0000000000000000e+02
-2.5000000000000000e-01 2.5000000000000000e-01
ITEM: ATOMS id type x y 
42473 2 -31.2841 53.4012 
42474 2 -30.4144 53.8949 
42469 2 -31.2768 54.4012 
42470 2 -30.4072 54.8948 
42475 2 -29.5448 54.3886 
42476 2 -28.6752 54.8823 
42466 2 -31.2695 55.4011 
42471 2 -29.5375 55.3885 
42477 2 -27.8055 55.3759 
42467 2 -30.3999 55.8948 
42472 2 -28.6679 55.8822 
42464 2 -31.2622 56.4011 
42468 2 -29.5302 56.3885 
42465 2 -30.3926 56.8947 
42463 2 -31.2549 57.401 
ITEM: TIMESTEP
340000
ITEM: NUMBER OF ATOMS
15
ITEM: BOX BOUNDS ff fm pp
-4.1000000000000000e+01 4.1000000000000000e+01
0.0000000000000000e+00 2.0000000000000000e+02
-2.5000000000000000e-01 2.5000000000000000e-01
ITEM: ATOMS id type x y 
42473 2 -32.0338 50.5337 
42474 2 -31.1606 51.0211 
42469 2 -32.0193 51.5336 
42475 2 -30.2875 51.5085 
42466 2 -32.0048 52.5335 
42470 2 -31.1462 52.021 
42471 2 -30.273 52.5084 
42476 2 -29.4143 51.9959 
42477 2 -28.5411 52.4833 
42467 2 -31.1317 53.0209 
42472 2 -29.3998 52.9958 
42464 2 -31.9903 53.5333 
42468 2 -30.2585 53.5083 
42465 2 -31.1172 54.0207 
42463 2 -31.9758 54.5332 
ITEM: TIMESTEP
350000
ITEM: NUMBER OF ATOMS
15
ITEM: BOX BOUNDS ff fm pp
-4.1000000000000000e+01 4.1000000000000000e+01
0.0000000000000000e+00 2.0000000000000000e+02
-2.5000000000000000e-01 2.5000000000000000e-01
ITEM: ATOMS id type x y 
42473 2 -32.8034 47.7615 
42474 2 -31.9154 48.2212 
42469 2 -32.7575 48.7604 
42475 2 -31.0273 48.6809 
42470 2 -31.8694 49.2201 
42476 2 -30.1392 49.1406 
42466 2 -32.7116 49.7593 
42471 2 -30.9814 49.6798 
42472 2 -30.0933 50.1396 
42477 2 -29.2512 49.6003 
42464 2 -32.6657 50.7583 
42467 2 -31.8235 50.2191 
42468 2 -30.9355 50.6788 
42465 2 -31.7776 51.218 
42463 2 -32.6197 51.7572 
ITEM: TIMESTEP
360000
ITEM: NUMBER OF ATOMS
15
ITEM: BOX BOUNDS ff fm pp
-4.1000000000000000e+01 4.1000000000000000e+01
0.0000000000000000e+00 2.0000000000000000e+02
-2.5000000000000000e-01 2.5000000000000000e-01
ITEM: ATOMS id type x y 
42473 2 -33.5478 45.0892 
42474 2 -32.6432 45.5155 
42475 2 -31.7386 45.9418 
42469 2 -33.4647 46.0857 
42470 2 -32.5601 46.512 
42476 2 -30.8341 46.3681 
42466 2 -33.3816 47.0822 
42471 2 -31.6555 46.9383 
42477 2 -29.9295 46.7944 
42467 2 -32.477 47.5085 
42472 2 -30.7509 47.3646 
42464 2 -33.2985 48.0788 
42468 2 -31.5724 47.9348 
42465 2 -32.3939 48.5051 
42463 2 -33.2153 49.0753 
ITEM: TIMESTEP
370000
ITEM: NUMBER OF ATOMS
15
ITEM: BOX BOUNDS ff fm pp
-4.1000000000000000e+01 4.1000000000000000e+01
0.0000000000000000e+00 2.0000000000000000e+02
-2.5000000000000000e-01 2.5000000000000000e-01
ITEM: ATOMS id type x y 
42473 2 -34.1929 42.496 
42474 2 -33.2802 42.9045 
42469 2 -34.0903 43.4907 
42475 2 -32.3674 43.313 
42470 2 -33.1775 43.8992 
42476 2 -31.4546 43.7215 
42477 2 -30.5418 44.13 
42466 2 -33.9876 44.4854 
42471 2 -32.2647 44.3077 
42472 2 -31.352 44.7162 
42467 2 -33.0749 44.8939 
42468 2 -32.1621 45.3024 
42464 2 -33.885 45.4801 
42465 2 -32.9722 45.8886 
42463 2 -33.7824 46.4748 
ITEM: TIMESTEP
380000
ITEM: NUMBER OF ATOMS
15
ITEM: BOX BOUNDS ff fm pp
-4.1000000000000000e+01 4.1000000000000000e+01
0.0000000000000000e+00 2.0000000000000000e+02
-2.5000000000000000e-01 2.5000000000000000e-01
ITEM: ATOMS id type x y 
42473 2 -34.8134 40.0664 
42474 2 -33.8884 40.4462 
42469 2 -34.6798 41.0574 
42475 2 -32.9633 40.8261 
42476 2 -32.0382 41.2059 
42470 2 -33.7547 41.4373 
42471 2 -32.8297 41.8171 
42477 2 -31.1132 41.5857 
42466 2 -34.5462 42.0484 
42467 2 -33.6211 42.4283 
42472 2 -31.9046 42.1969 
42468 2 -32.6961 42.8081 
42464 2 -34.4126 43.0395 
42465 2 -33.4875 43.4193 
42463 2 -34.279 44.0305 
ITEM: TIMESTEP
390000
ITEM: NUMBER OF ATOMS
15
ITEM: BOX BOUNDS ff fm pp
-4.1000000000000000e+01 4.1000000000000000e+01
0.0000000000000000e+00 2.0000000000000000e+02
-2.5000000000000000e-01 2.5000000000000000e-01
ITEM: ATOMS id type x y 
42473 2 -35.4061 37.7335 
42474 2 -34.4704 38.0864 
42469 2 -35.2438 38.7203 
42475 2 -33.5347 38.4392 
42476 2 -32.5991 38.792 
42470 2 -34.3081 39.0731 
42477 2 -31.6634 39.1448 
42466 2 -35.0815 39.707 
42471 2 -33.3724 39.4259 
42472 2 -32.4367 39.7787 
42467 2 -34.1458 40.0598 
42468 2 -33.2101 40.4126 
42464 2 -34.9192 40.6937 
42465 2 -33.9835 41.0465 
42463 2 -34.7569 41.6804 
ITEM: TIMESTEP
400000
ITEM: NUMBER OF ATOMS
15
ITEM: BOX BOUNDS ff fm pp
-4.1000000000000000e+01 4.1000000000000000e+01
0.0000000000000000e+00 2.0000000000000000e+02
-2.5000000000000000e-01 2.5000000000000000e-01
ITEM: ATOMS id type x y 
42473 2 -35.9508 35.5184 
42474 2 -35.0077 35.851 
42475 2 -34.0646 36.1835 
42469 2 -35.7673 36.5014 
42470 2 -34.8242 36.834 
42476 2 -33.1216 36.5161 
42477 2 -32.1785 36.8487 
42466 2 -35.5838 37.4844 
42471 2 -33.8811 37.1665 
42472 2 -32.938 37.4991 
42467 2 -34.6407 37.8169 
42468 2 -33.6976 38.1495 
42464 2 -35.4002 38.4674 
42465 2 -34.4572 38.7999 
42463 2 -35.2167 39.4504 
ITEM: TIMESTEP
410000
ITEM: NUMBER OF ATOMS
15
ITEM: BOX BOUNDS ff fm pp
-4.1000000000000000e+01 4.1000000000000000e+01
0.0000000000000000e+00 2.0000000000000000e+02
-2.5000000000000000e-01 2.5000000000000000e-01
ITEM: ATOMS id type x y 
42473 2 -36.3956 33.5135 
42474 2 -35.4463 33.828 
42469 2 -36.1933 34.4928 
42475 2 -34.497 34.1425 
42476 2 -33.5478 34.4569 
42470 2 -35.244 34.8073 
42471 2 -34.2947 35.1218 
42477 2 -32.5985 34.7714 
42466 2 -35.9909 35.4721 
42467 2 -35.0417 35.7866 
42472 2 -33.3454 35.4362 
42468 2 -34.0924 36.1011 
42464 2 -35.7886 36.4514 
42465 2 -34.8394 36.7659 
42463 2 -35.5863 37.4307 
ITEM: TIMESTEP
420000
ITEM: NUMBER OF ATOMS
15
ITEM: BOX BOUNDS ff fm pp
-4.1000000000000000e+01 4.1000000000000000e+01
0.0000000000000000e+00 2.0000000000000000e+02
-2.5000000000000000e-01 2.5000000000000000e-01
ITEM: ATOMS id type x y 
42473 2 -36.837 31.6947 
42474 2 -35.8777 31.9771 
42469 2 -36.602 32.6666 
42475 2 -34.9184 32.2596 
42476 2 -33.9592 32.5421 
42477 2 -32.9999 32.8245 
42470 2 -35.6427 32.9491 
42471 2 -34.6834 33.2316 
42466 2 -36.367 33.6386 
42467 2 -35.4077 33.9211 
42472 2 -33.7241 33.514 
42464 2 -36.1319 34.6106 
42468 2 -34.4484 34.2035 
42465 2 -35.1727 34.893 
42463 2 -35.8969 35.5825 
ITEM: TIMESTEP
430000
ITEM: NUMBER OF ATOMS
15
ITEM: BOX BOUNDS ff fm pp
-4.1000000000000000e+01 4.1000000000000000e+01
0.0000000000000000e+00 2.0000000000000000e+02
-2.5000000000000000e-01 2.5000000000000000e-01
ITEM: ATOMS id type x y 
42473 2 -37.2437 30.1161 
42474 2 -36.2693 30.3407 
42469 2 -36.9509 31.0723 
42475 2 -35.2948 30.5652 
42476 2 -34.3203 30.7897 
42477 2 -33.3459 31.0143 
42470 2 -35.9765 31.2968 
42471 2 -35.002 31.5213 
42466 2 -36.6582 32.0284 
42467 2 -35.6837 32.253 
42472 2 -34.0275 31.7459 
42468 2 -34.7092 32.4775 
42464 2 -36.3654 32.9846 
42465 2 -35.3909 33.2091 
42463 2 -36.0726 33.9407 
ITEM: TIMESTEP
440000
ITEM: NUMBER OF ATOMS
15
ITEM: BOX BOUNDS ff fm pp
-4.1000000000000000e+01 4.1000000000000000e+01
0.0000000000000000e+00 2.0000000000000000e+02
-2.5000000000000000e-01 2.5000000000000000e-01
ITEM: ATOMS id type x y 
42473 2 -37.6169 28.7959 
42474 2 -36.625 28.9227 
42475 2 -35.6331 29.0494 
42476 2 -34.6411 29.1761 
42469 2 -37.2307 29.7183 
42470 2 -36.2388 29.845 
42477 2 -33.6492 29.3028 
42471 2 -35.2468 29.9718 
42472 2 -34.2549 30.0985 
42466 2 -36.8445 30.6407 
42467 2 -35.8526 30.7674 
42468 2 -34.8606 30.8941 
42464 2 -36.4583 31.5631 
42465 2 -35.4663 31.6898 
42463 2 -36.0721 32.4855 
ITEM: TIMESTEP
450000
ITEM: NUMBER OF ATOMS
15
ITEM: BOX BOUNDS ff fm pp
-4.1000000000000000e+01 4.1000000000000000e+01
0.0000000000000000e+00 2.0000000000000000e+02
-2.5000000000000000e-01 2.5000000000000000e-01
ITEM: ATOMS id type x y 
42473 2 -37.9109 27.5466 
42474 2 -36.9109 27.5538 
42475 2 -35.9109 27.561 
42476 2 -34.9109 27.5682 
42477 2 -33.911 27.5754 
42469 2 -37.4171 28.4161 
42470 2 -36.4171 28.4233 
42471 2 -35.4172 28.4305 
42472 2 -34.4172 28.4377 
42466 2 -36.9234 29.2857 
42467 2 -35.9234 29.2929 
42468 2 -34.9234 29.3001 
42464 2 -36.4296 30.1553 
42465 2 -35.4296 30.1625 
42463 2 -35.9359 31.0249 
ITEM: TIMESTEP
460000
ITEM: NUMBER OF ATOMS
15
ITEM: BOX BOUNDS ff fm pp
-4.1000000000000000e+01 4.1000000000000000e+01
0.0000000000000000e+00 2.0000000000000000e+02
-2.5000000000000000e-01 2.5000000000000000e-01
ITEM: ATOMS id type x y 
42474 2 -37.065 26.2354 
42475 2 -36.0699 26.1364 
42476 2 -35.0749 26.0373 
42477 2 -34.0798 25.9383 
42473 2 -38.0601 26.3345 
42472 2 -34.4915 26.8496 
42469 2 -37.4768 27.1467 
42470 2 -36.4817 27.0476 
42471 2 -35.4866 26.9486 
42466 2 -36.8935 27.9589 
42467 2 -35.8984 27.8599 
42468 2 -34.9033 27.7608 
42465 2 -35.3151 28.6721 
42464 2 -36.3102 28.7711 
42463 2 -35.7269 29.5833 
ITEM: TIMESTEP
470000
ITEM: NUMBER OF ATOMS
15
ITEM: BOX BOUNDS ff fm pp
-4.1000000000000000e+01 4.1000000000000000e+01
0.0000000000000000e+00 2.0000000000000000e+02
-2.5000000000000000e-01 2.5000000000000000e-01
ITEM: ATOMS id type x y 
42477 2 -34.1108 24.3521 
42473 2 -38.0449 25.0752 
42474 2 -37.0614 24.8944 
42475 2 -36.0779 24.7136 
42476 2 -35.0943 24.5328 
42470 2 -36.4131 25.6557 
42471 2 -35.4295 25.475 
42472 2 -34.446 25.2942 
42469 2 -37.3966 25.8365 
42468 2 -34.7812 26.2363 
42466 2 -36.7483 26.5979 
42467 2 -35.7648 26.4171 
42464 2 -36.1 27.3592 
42465 2 -35.1164 27.1784 
42463 2 -35.4516 28.1205 
ITEM: TIMESTEP
480000
ITEM: NUMBER OF ATOMS
15
ITEM: BOX BOUNDS ff fm pp
-4.1000000000000000e+01 4.1000000000000000e+01
0.0000000000000000e+00 2.0000000000000000e+02
-2.5000000000000000e-01 2.5000000000000000e-01
ITEM: ATOMS id type x y 
42476 2 -35.0018 23.2147 
42477 2 -34.0328 22.9678 
42474 2 -36.9399 23.7086 
42475 2 -35.9708 23.4617 
42473 2 -37.9089 23.9555 
42470 2 -36.2415 24.4243 
42471 2 -35.2725 24.1774 
42472 2 -34.3035 23.9305 
42469 2 -37.2106 24.6712 
42468 2 -34.5741 24.8931 
42466 2 -36.5122 25.3869 
42467 2 -35.5432 25.14 
42464 2 -35.8139 26.1027 
42465 2 -34.8448 25.8558 
42463 2 -35.1155 26.8184 
ITEM: TIMESTEP
490000
ITEM: NUMBER OF ATOMS
15
ITEM: BOX BOUNDS ff fm pp
-4.1000000000000000e+01 4.1000000000000000e+01