ITEM: TIMESTEP
0
ITEM: NUMBER OF ATOMS
15
ITEM: BOX BOUNDS ff fm pp
-4.1000000000000000e+01 4.1000000000000000e+01
0.0000000000000000e+00 2.0000000000000000e+02
-2.5000000000000000e-01 2.5000000000000000e-01
ITEM: ATOMS id type x y 
42503 4 -2 136.536 
42504 4 -1 136.536 
42499 4 -1.5 137.402 
42500 4 -0.5 137.402 
42496 4 -1 138.268 
42494 4 -0.5 139.134 
42505 4 0 136.536 
42506 4 1 136.536 
42507 4 2 136.536 
42501 4 0.5 137.402 
42502 4 1.5 137.402 
42497 4 0 138.268 
42498 4 1 138.268 
42495 4 0.5 139.134 
42493 4 0 140 
ITEM: TIMESTEP
10000
ITEM: NUMBER OF ATOMS
15
ITEM: BOX BOUNDS ff fm pp
-4.1000000000000000e+01 4.1000000000000000e+01
0.0000000000000000e+00 2.0000000000000000e+02
-2.5000000000000000e-01 2.5000000000000000e-01
ITEM: ATOMS id type x y 
42503 4 -2 136.411 
42504 4 -1 136.411 
42505 4 -2.10181e-17 136.411 
42499 4 -1.5 137.277 
42500 4 -0.5 137.277 
42496 4 -1 138.143 
42497 4 -1.24518e-17 138.143 
42494 4 -0.5 139.009 
42493 4 -3.88537e-18 139.875 
42506 4 1 136.411 
42507 4 2 136.411 
42501 4 0.5 137.277 
42502 4 1.5 137.277 
42498 4 1 138.143 
42495 4 0.5 139.009 
ITEM: TIMESTEP
20000
ITEM: NUMBER OF ATOMS
15
ITEM: BOX BOUNDS ff fm pp
-4.1000000000000000e+01 4.1000000000000000e+01
0.0000000000000000e+00 2.0000000000000000e+02
-2.5000000000000000e-01 2.5000000000000000e-01
ITEM: ATOMS id type x y 
42503 4 -2 136.036 
42504 4 -1 136.036 
42505 4 -8.43388e-17 136.036 
42499 4 -1.5 136.902 
42500 4 -0.5 136.902 
42496 4 -1 137.768 
42497 4 -4.96744e-17 137.768 
42494 4 -0.5 138.634 
42493 4 -1.501e-17 139.5 
42506 4 1 136.036 
42507 4 2 136.036 
42501 4 0.5 136.902 
42502 4 1.5 136.902 
42498 4 1 137.768 
42495 4 0.5 138.634 
ITEM: TIMESTEP
30000
ITEM: NUMBER OF ATOMS
15
ITEM: BOX BOUNDS ff fm pp
-4.1000000000000000e+01 4.1000000000000000e+01
0.0000000000000000e+00 2.0000000000000000e+02
-2.5000000000000000e-01 2.5000000000000000e-01
ITEM: ATOMS id type x y 
42503 4 -2 135.411 
42504 4 -1 135.411 
42505 4 -1.8344e-16 135.411 
42499 4 -1.5 136.277 
42500 4 -0.5 136.277 
42496 4 -1 137.143 
42497 4 -1.14929e-16 137.143 
42494 4 -0.5 138.009 
42493 4 -4.64184e-17 138.875 
42506 4 1 135.411 
42507 4 2 135.411 
42501 4 0.5 136.277 
42502 4 1.5 136.277 
42498 4 1 137.143 
42495 4 0.5 138.009 
ITEM: TIMESTEP
40000
ITEM: NUMBER OF ATOMS
15
ITEM: BOX BOUNDS ff fm pp
-4.1000000000000000e+01 4.1000000000000000e+01
0.0000000000000000e+00 2.0000000000000000e+02
-2.5000000000000000e-01 2.5000000000000000e-01
ITEM: ATOMS id type x y 
42503 4 -2 134.536 
42504 4 -1 134.536 
42505 4 -3.17003e-16 134.536 
42499 4 -1.5 135.402 
42500 4 -0.5 135.402 
42496 4 -1 136.268 
42497 4 -2.08873e-16 136.268 
42494 4 -0.5 137.134 
42493 4 -1.00742e-16 138 
42506 4 1 134.536 
42507 4 2 134.536 
42501 4 0.5 135.402 
42502 4 1.5 135.402 
42498 4 1 136.268 
42495 4 0.5 137.134 
ITEM: TIMESTEP
50000
ITEM: NUMBER OF ATOMS
15
ITEM: BOX BOUNDS ff fm pp
-4.1000000000000000e+01 4.1000000000000000e+01
0.0000000000000000e+00 2.0000000000000000e+02
-2.5000000000000000e-01 2.5000000000000000e-01
ITEM: ATOMS id type x y 
42503 4 -2 133.411 
42504 4 -1 133.411 
42505 4 -4.80425e-16 133.411 
42499 4 -1.5 134.277 
42500 4 -0.5 134.277 
42496 4 -1 135.143 
42497 4 -3.33808e-16 135.143 
42494 4 -0.5 136.009 
42493 4 -1.87192e-16 136.875 
42506 4 1 133.411 
42507 4 2 133.411 
42501 4 0.5 134.277 
42502 4 1.5 134.277 
42498 4 1 135.143 
42495 4 0.5 136.009 
ITEM: TIMESTEP
60000
ITEM: NUMBER OF ATOMS
15
ITEM: BOX BOUNDS ff fm pp
-4.1000000000000000e+01 4.1000000000000000e+01
0.0000000000000000e+00 2.0000000000000000e+02
-2.5000000000000000e-01 2.5000000000000000e-01
ITEM: ATOMS id type x y 
42503 4 -2 132.036 
42504 4 -1 132.036 
42505 4 -6.7516e-16 132.036 
42499 4 -1.5 132.902 
42500 4 -0.5 132.902 
42496 4 -1 133.768 
42497 4 -4.89008e-16 133.768 
42494 4 -0.5 134.634 
42493 4 -3.02857e-16 135.5 
42506 4 1 132.036 
42507 4 2 132.036 
42501 4 0.5 132.902 
42502 4 1.5 132.902 
42498 4 1 133.768 
42495 4 0.5 134.634 
ITEM: TIMESTEP
70000
ITEM: NUMBER OF ATOMS
15
ITEM: BOX BOUNDS ff fm pp
-4.1000000000000000e+01 4.1000000000000000e+01
0.0000000000000000e+00 2.0000000000000000e+02
-2.5000000000000000e-01 2.5000000000000000e-01
ITEM: ATOMS id type x y 
42503 4 -2 130.411 
42504 4 -1 130.411 
42505 4 -9.0689e-16 130.411 
42499 4 -1.5 131.277 
42500 4 -0.5 131.277 
42496 4 -1 132.143 
42497 4 -6.71632e-16 132.143 
42494 4 -0.5 133.009 
42493 4 -4.36375e-16 133.875 
42506 4 1 130.411 
42507 4 2 130.411 
42501 4 0.5 131.277 
42502 4 1.5 131.277 
42498 4 1 132.143 
42495 4 0.5 133.009 
ITEM: TIMESTEP
80000
ITEM: NUMBER OF ATOMS
15
ITEM: BOX BOUNDS ff fm pp
-4.1000000000000000e+01 4.1000000000000000e+01
0.0000000000000000e+00 2.0000000000000000e+02
-2.5000000000000000e-01 2.5000000000000000e-01
ITEM: ATOMS id type x y 
42503 4 -2 128.536 
42504 4 -1 128.536 
42505 4 -1.1635e-15 128.536 
42499 4 -1.5 129.402 
42500 4 -0.5 129.402 
42496 4 -1 130.268 
42497 4 -8.87736e-16 130.268 
42494 4 -0.5 131.134 
42493 4 -6.11968e-16 132 
42506 4 1 128.536 
42507 4 2 128.536 
42501 4 0.5 129.402 
42502 4 1.5 129.402 
42498 4 1 130.268 
42495 4 0.5 131.134 
ITEM: TIMESTEP
90000
ITEM: NUMBER OF ATOMS
15
ITEM: BOX BOUNDS ff fm pp
-4.1000000000000000e+01 4.1000000000000000e+01
0.0000000000000000e+00 2.0000000000000000e+02
-2.5000000000000000e-01 2.5000000000000000e-01
ITEM: ATOMS id type x y 
42503 4 -2 126.411 
42504 4 -1 126.411 
42505 4 -1.44762e-15 126.411 
42499 4 -1.5 127.277 
42500 4 -0.5 127.277 
42496 4 -1 128.143 
42497 4 -1.13601e-15 128.143 
42494 4 -0.5 129.009 
42493 4 -8.24406e-16 129.875 
42506 4 1 126.411 
42507 4 2 126.411 
42501 4 0.5 127.277 
42502 4 1.5 127.277 
42498 4 1 128.143 
42495 4 0.5 129.009 
ITEM: TIMESTEP
100000
ITEM: NUMBER OF ATOMS
15
ITEM: BOX BOUNDS ff fm pp
-4.1000000000000000e+01 4.1000000000000000e+01
0.0000000000000000e+00 2.0000000000000000e+02
-2.5000000000000000e-01 2.5000000000000000e-01
ITEM: ATOMS id type x y 
42503 4 -2 124.036 
42504 4 -1 124.036 
42505 4 -1.76497e-15 124.036 
42499 4 -1.5 124.902 
42500 4 -0.5 124.902 
42496 4 -1 125.768 
42497 4 -1.41359e-15 125.768 
42494 4 -0.5 126.634 
42493 4 -1.0622e-15 127.5 
42506 4 1 124.036 
42507 4 2 124.036 
42501 4 0.5 124.902 
42502 4 1.5 124.902 
42498 4 1 125.768 
42495 4 0.5 126.634 
ITEM: TIMESTEP
110000
ITEM: NUMBER OF ATOMS
15
ITEM: BOX BOUNDS ff fm pp
-4.1000000000000000e+01 4.1000000000000000e+01
0.0000000000000000e+00 2.0000000000000000e+02
-2.5000000000000000e-01 2.5000000000000000e-01
ITEM: ATOMS id type x y 
42503 4 -2 121.411 
42504 4 -1 121.411 
42505 4 -2.11004e-15 121.411 
42499 4 -1.5 122.277 
42500 4 -0.5 122.277 
42496 4 -1 123.143 
42497 4 -1.72322e-15 123.143 
42494 4 -0.5 124.009 
42493 4 -1.33641e-15 124.875 
42506 4 1 121.411 
42507 4 2 121.411 
42501 4 0.5 122.277 
42502 4 1.5 122.277 
42498 4 1 123.143 
42495 4 0.5 124.009 
ITEM: TIMESTEP
120000
ITEM: NUMBER OF ATOMS
15
ITEM: BOX BOUNDS ff fm pp
-4.1000000000000000e+01 4.1000000000000000e+01
0.0000000000000000e+00 2.0000000000000000e+02
-2.5000000000000000e-01 2.5000000000000000e-01
ITEM: ATOMS id type x y 
42503 4 -1.99296 118.641 
42504 4 -0.992962 118.642 
42499 4 -1.49418 119.507 
42500 4 -0.494185 119.509 
42496 4 -0.995407 120.374 
42494 4 -0.49663 121.241 
42493 4 0.00214651 122.107 
42505 4 0.00703659 118.643 
42506 4 1.00704 118.645 
42507 4 2.00703 118.646 
42501 4 0.505814 119.51 
42502 4 1.50581 119.512 
42497 4 0.00459155 120.375 
42498 4 1.00459 120.377 
42495 4 0.503369 121.242 
ITEM: TIMESTEP
130000
ITEM: NUMBER OF ATOMS
15
ITEM: BOX BOUNDS ff fm pp
-4.1000000000000000e+01 4.1000000000000000e+01
0.0000000000000000e+00 2.0000000000000000e+02
-2.5000000000000000e-01 2.5000000000000000e-01
ITEM: ATOMS id type x y 
42503 4 -1.95625 115.893 
42504 4 -0.956401 115.911 
42499 4 -1.4713 116.768 
42500 4 -0.471453 116.785 
42496 4 -0.986356 117.642 
42494 4 -0.501407 118.517 
42493 4 -0.0164592 119.391 
42505 4 0.043449 115.928 
42506 4 1.0433 115.945 
42507 4 2.04315 115.962 
42501 4 0.528397 116.802 
42502 4 1.52825 116.82 
42497 4 0.0134949 117.66 
42498 4 1.01335 117.677 
42495 4 0.498443 118.534 
ITEM: TIMESTEP
140000
ITEM: NUMBER OF ATOMS
15
ITEM: BOX BOUNDS ff fm pp
-4.1000000000000000e+01 4.1000000000000000e+01
0.0000000000000000e+00 2.0000000000000000e+02
-2.5000000000000000e-01 2.5000000000000000e-01
ITEM: ATOMS id type x y 
42503 4 -1.90933 113.284 
42504 4 -0.909917 113.318 
42499 4 -1.43937 114.166 
42500 4 -0.439965 114.201 
42496 4 -0.969423 115.049 
42494 4 -0.49947 115.932 
42493 4 -0.0295183 116.814 
42505 4 0.0894925 113.352 
42506 4 1.0889 113.387 
42507 4 2.08831 113.421 
42501 4 0.559445 114.235 
42502 4 1.55885 114.269 
42497 4 0.0299871 115.083 
42498 4 1.0294 115.118 
42495 4 0.499939 115.966 
ITEM: TIMESTEP
150000
ITEM: NUMBER OF ATOMS
15
ITEM: BOX BOUNDS ff fm pp
-4.1000000000000000e+01 4.1000000000000000e+01
0.0000000000000000e+00 2.0000000000000000e+02
-2.5000000000000000e-01 2.5000000000000000e-01
ITEM: ATOMS id type x y 
42503 4 -1.88745 110.868 
42504 4 -0.888534 110.915 
42499 4 -1.42834 111.757 
42500 4 -0.429427 111.803 
42496 4 -0.969234 112.645 
42494 4 -0.510128 113.533 
42493 4 -0.0510206 114.422 
42505 4 0.11038 110.962 
42506 4 1.10929 111.008 
42507 4 2.10821 111.055 
42501 4 0.569486 111.85 
42502 4 1.5684 111.897 
42497 4 0.0296795 112.692 
42498 4 1.02859 112.738 
42495 4 0.488786 113.58 
ITEM: TIMESTEP
160000
ITEM: NUMBER OF ATOMS
15
ITEM: BOX BOUNDS ff fm pp
-4.1000000000000000e+01 4.1000000000000000e+01
0.0000000000000000e+00 2.0000000000000000e+02
-2.5000000000000000e-01 2.5000000000000000e-01
ITEM: ATOMS id type x y 
42503 4 -1.88434 108.53 
42504 4 -0.885733 108.582 
42499 4 -1.43075 109.421 
42500 4 -0.432141 109.474 
42496 4 -0.977155 110.312 
42494 4 -0.523562 111.203 
42493 4 -0.06997 112.094 
42505 4 0.112873 108.635 
42506 4 1.11148 108.688 
42507 4 2.11008 108.741 
42501 4 0.566465 109.526 
42502 4 1.56507 109.579 
42497 4 0.0214513 110.365 
42498 4 1.02006 110.418 
42495 4 0.475044 111.256 
ITEM: TIMESTEP
170000
ITEM: NUMBER OF ATOMS
15
ITEM: BOX BOUNDS ff fm pp
-4.1000000000000000e+01 4.1000000000000000e+01
0.0000000000000000e+00 2.0000000000000000e+02
-2.5000000000000000e-01 2.5000000000000000e-01
ITEM: ATOMS id type x y 
42503 4 -1.86936 106.184 
42504 4 -0.87195 106.256 
42499 4 -1.43297 107.084 
42500 4 -0.435562 107.156 
42496 4 -0.996582 107.983 
42494 4 -0.560193 108.883 
42493 4 -0.123805 109.783 
42505 4 0.125458 106.328 
42506 4 1.12287 106.4 
42507 4 2.12027 106.472 
42501 4 0.561846 107.227 
42502 4 1.55925 107.299 
42497 4 0.000826101 108.055 
42498 4 0.998234 108.127 
42495 4 0.437214 108.955 
ITEM: TIMESTEP
180000
ITEM: NUMBER OF ATOMS
15
ITEM: BOX BOUNDS ff fm pp
-4.1000000000000000e+01 4.1000000000000000e+01
0.0000000000000000e+00 2.0000000000000000e+02
-2.5000000000000000e-01 2.5000000000000000e-01
ITEM: ATOMS id type x y 
42503 4 -1.86211 103.827 
42504 4 -0.866053 103.915 
42499 4 -1.44093 104.734 
42500 4 -0.444874 104.822 
42496 4 -1.01975 105.641 
42497 4 -0.023694 105.729 
42494 4 -0.598569 106.548 
42493 4 -0.17739 107.454 
42505 4 0.130002 104.004 
42506 4 1.12606 104.093 
42507 4 2.12211 104.182 
42501 4 0.551181 104.911 
42502 4 1.54724 105 
42498 4 0.972361 105.818 
42495 4 0.397485 106.636 
ITEM: TIMESTEP
190000
ITEM: NUMBER OF ATOMS
15
ITEM: BOX BOUNDS ff fm pp
-4.1000000000000000e+01 4.1000000000000000e+01
0.0000000000000000e+00 2.0000000000000000e+02
-2.5000000000000000e-01 2.5000000000000000e-01
ITEM: ATOMS id type x y 
42503 4 -1.85924 101.459 
42504 4 -0.864829 101.565 
42499 4 -1.45348 102.373 
42500 4 -0.459072 102.479 
42496 4 -1.04772 103.287 
42497 4 -0.053314 103.393 
42494 4 -0.641965 104.201 
42493 4 -0.236208 105.115 
42505 4 0.12958 101.671 
42506 4 1.12399 101.776 
42507 4 2.1184 101.882 
42501 4 0.535337 102.585 
42502 4 1.52975 102.69 
42498 4 0.941095 103.498 
42495 4 0.352444 104.307 
ITEM: TIMESTEP
200000
ITEM: NUMBER OF ATOMS
15
ITEM: BOX BOUNDS ff fm pp
-4.1000000000000000e+01 4.1000000000000000e+01
0.0000000000000000e+00 2.0000000000000000e+02
-2.5000000000000000e-01 2.5000000000000000e-01
ITEM: ATOMS id type x y 
42503 4 -1.88638 99.1039 
42504 4 -0.893156 99.2201 
42499 4 -1.4904 100.022 
42500 4 -0.497174 100.138 
42496 4 -1.09442 100.94 
42497 4 -0.101191 101.057 
42494 4 -0.698434 101.859 
42493 4 -0.302451 102.777 
42505 4 0.10007 99.3363 
42506 4 1.0933 99.4525 
42507 4 2.08652 99.5687 
42501 4 0.496052 100.255 
42502 4 1.48928 100.371 
42498 4 0.892035 101.173 
42495 4 0.294792 101.975 
ITEM: TIMESTEP
210000
ITEM: NUMBER OF ATOMS
15
ITEM: BOX BOUNDS ff fm pp
-4.1000000000000000e+01 4.1000000000000000e+01
0.0000000000000000e+00 2.0000000000000000e+02
-2.5000000000000000e-01 2.5000000000000000e-01
ITEM: ATOMS id type x y 
42503 4 -1.91918 96.6948 
42504 4 -0.92832 96.8297 
42499 4 -1.54055 97.6203 
42500 4 -0.549685 97.7552 
42496 4 -1.16191 98.5459 
42497 4 -0.17105 98.6807 
42494 4 -0.783278 99.4714 
42493 4 -0.404643 100.397 
42505 4 0.0625432 96.9645 
42506 4 1.05341 97.0994 
42507 4 2.04427 97.2343 
42501 4 0.441178 97.8901 
42502 4 1.43204 98.0249 
42498 4 0.819814 98.8156 
42495 4 0.207586 99.6062 
ITEM: TIMESTEP
220000
ITEM: NUMBER OF ATOMS
15
ITEM: BOX BOUNDS ff fm pp
-4.1000000000000000e+01 4.1000000000000000e+01
0.0000000000000000e+00 2.0000000000000000e+02
-2.5000000000000000e-01 2.5000000000000000e-01
ITEM: ATOMS id type x y 
42503 4 -1.96335 94.2482 
42504 4 -0.975837 94.4057 
42499 4 -1.60603 95.1821 
42500 4 -0.618521 95.3397 
42496 4 -1.24872 96.1161 
42497 4 -0.261205 96.2736 
42494 4 -0.8914 97.05 
42493 4 -0.534084 97.984 
42505 4 0.0116735 94.5633 
42506 4 0.999184 94.7208 
42507 4 1.9867 94.8784 
42501 4 0.368989 95.4972 
42502 4 1.3565 95.6548 
42498 4 0.726305 96.4312 
42495 4 0.0961105 97.2076 
ITEM: TIMESTEP
230000
ITEM: NUMBER OF ATOMS
15
ITEM: BOX BOUNDS ff fm pp
-4.1000000000000000e+01 4.1000000000000000e+01
0.0000000000000000e+00 2.0000000000000000e+02
-2.5000000000000000e-01 2.5000000000000000e-01
ITEM: ATOMS id type x y 
42503 4 -2.02921 91.7622 
42504 4 -1.04583 91.9438 
42505 4 -0.0624502 92.1253 
42499 4 -1.69474 92.7046 
42500 4 -0.711362 92.8862 
42496 4 -1.36027 93.647 
42497 4 -0.376892 93.8286 
42494 4 -1.0258 94.5894 
42495 4 -0.0424224 94.7709 
42493 4 -0.691334 95.5318 
42506 4 0.920932 92.3069 
42507 4 1.90431 92.4884 
42501 4 0.27202 93.0677 
42502 4 1.2554 93.2493 
42498 4 0.60649 94.0101 
ITEM: TIMESTEP
240000
ITEM: NUMBER OF ATOMS
15
ITEM: BOX BOUNDS ff fm pp
-4.1000000000000000e+01 4.1000000000000000e+01
0.0000000000000000e+00 2.0000000000000000e+02
-2.5000000000000000e-01 2.5000000000000000e-01
ITEM: ATOMS id type x y 
42503 4 -2.11004 89.2224 
42504 4 -1.13167 89.4292 
42505 4 -0.153293 89.636 
42499 4 -1.79998 90.173 
42500 4 -0.821599 90.3799 
42496 4 -1.48991 91.1237 
42497 4 -0.511529 91.3306 
42494 4 -1.17984 92.0744 
42495 4 -0.20146 92.2813 
42493 4 -0.869766 93.0251 
42506 4 0.825083 89.8429 
42507 4 1.80346 90.0497 
42501 4 0.156777 90.5867 
42502 4 1.13515 90.7935 
42498 4 0.466847 91.5374 
ITEM: TIMESTEP
250000
ITEM: NUMBER OF ATOMS
15
ITEM: BOX BOUNDS ff fm pp
-4.1000000000000000e+01 4.1000000000000000e+01
0.0000000000000000e+00 2.0000000000000000e+02
-2.5000000000000000e-01 2.5000000000000000e-01
ITEM: ATOMS id type x y 
42503 4 -2.21187 86.6221 
42504 4 -1.24033 86.859 
42505 4 -0.268791 87.0958 
42499 4 -1.93124 87.5819 
42500 4 -0.959697 87.8188 
42496 4 -1.6506 88.5417 
42497 4 -0.679064 88.7786 
42494 4 -1.36997 89.5015 
42495 4 -0.39843 89.7383 
42493 4 -1.08934 90.4613 
42506 4 0.702748 87.3327 
42507 4 1.67429 87.5696 
42501 4 0.0118422 88.0556 
42502 4 0.983382 88.2925 
42498 4 0.292476 89.0154 
ITEM: TIMESTEP
260000
ITEM: NUMBER OF ATOMS
15
ITEM: BOX BOUNDS ff fm pp
-4.1000000000000000e+01 4.1000000000000000e+01
0.0000000000000000e+00 2.0000000000000000e+02
-2.5000000000000000e-01 2.5000000000000000e-01
ITEM: ATOMS id type x y 
42503 4 -2.36133 83.9944 
42504 4 -1.39697 84.2589 
42499 4 -2.10827 84.9618 
42505 4 -0.432602 84.5235 
42500 4 -1.1439 85.2264 
42501 4 -0.179538 85.4909 
42496 4 -1.85521 85.9292 
42497 4 -0.890841 86.1938 
42494 4 -1.60214 86.8967 
42495 4 -0.637778 87.1612 
42493 4 -1.34908 87.8641 
42506 4 0.531764 84.7881 
42507 4 1.49613 85.0527 
42502 4 0.784827 85.7555 
42498 4 0.0735249 86.4584 
ITEM: TIMESTEP
270000
ITEM: NUMBER OF ATOMS
15
ITEM: BOX BOUNDS ff fm pp
-4.1000000000000000e+01 4.1000000000000000e+01
0.0000000000000000e+00 2.0000000000000000e+02
-2.5000000000000000e-01 2.5000000000000000e-01
ITEM: ATOMS id type x y 
42503 4 -2.51397 81.2967 
42504 4 -1.56097 81.5996 
42505 4 -0.607978 81.9026 
42499 4 -2.29986 82.2734 
42500 4 -1.34686 82.5764 
42501 4 -0.393869 82.8794 
42496 4 -2.08575 83.2502 
42497 4 -1.13275 83.5532 
42494 4 -1.87164 84.227 
42498 4 -0.179761 83.8562 
42495 4 -0.918646 84.53 
42493 4 -1.65753 85.2038 
42506 4 0.345016 82.2056 
42507 4 1.29801 82.5086 
42502 4 0.559125 83.1824 
ITEM: TIMESTEP
280000
ITEM: NUMBER OF ATOMS
15
ITEM: BOX BOUNDS ff fm pp
-4.1000000000000000e+01 4.1000000000000000e+01
0.0000000000000000e+00 2.0000000000000000e+02
-2.5000000000000000e-01 2.5000000000000000e-01
ITEM: ATOMS id type x y 
42503 4 -2.67958 78.5389 
42504 4 -1.74026 78.8819 
42499 4 -2.50699 79.5238 
42505 4 -0.800934 79.2249 
42500 4 -1.56767 79.8669 
42501 4 -0.628344 80.2099 
42496 4 -2.3344 80.5088 
42497 4 -1.39508 80.8518 
42498 4 -0.455755 81.1949 
42494 4 -2.16181 81.4938 
42495 4 -1.22249 81.8368 
42493 4 -1.98922 82.4787 
42506 4 0.138388 79.568 
42507 4 1.07771 79.911 
42502 4 0.310977 80.5529 
ITEM: TIMESTEP
290000
ITEM: NUMBER OF ATOMS
15
ITEM: BOX BOUNDS ff fm pp
-4.1000000000000000e+01 4.1000000000000000e+01
0.0000000000000000e+00 2.0000000000000000e+02
-2.5000000000000000e-01 2.5000000000000000e-01
ITEM: ATOMS id type x y 
42503 4 -2.87489 75.7011 
42504 4 -1.9489 76.0786 
42505 4 -1.02292 76.4562 
42499 4 -2.73886 76.6917 
42500 4 -1.81288 77.0693 
42506 4 -0.0969312 76.8337 
42496 4 -2.60283 77.6824 
42501 4 -0.88689 77.4469 
42497 4 -1.67685 78.06 
42498 4 -0.750864 78.4375 
42494 4 -2.46681 78.6731 
42495 4 -1.54082 79.0507 
42493 4 -2.33078 79.6638 
42507 4 0.829054 77.2113 
42502 4 0.0390954 77.8244 
ITEM: TIMESTEP
300000
ITEM: NUMBER OF ATOMS
15
ITEM: BOX BOUNDS ff fm pp
-4.1000000000000000e+01 4.1000000000000000e+01
0.0000000000000000e+00 2.0000000000000000e+02
-2.5000000000000000e-01 2.5000000000000000e-01
ITEM: ATOMS id type x y 
42503 4 -3.12183 72.7904 
42504 4 -2.20621 73.1925 
42505 4 -1.29059 73.5945 
42499 4 -3.0122 73.7844 
42500 4 -2.09658 74.1864 
42506 4 -0.374977 73.9966 
42496 4 -2.90256 74.7783 
42501 4 -1.18096 74.5885 
42497 4 -1.98695 75.1804 
42502 4 -0.265346 74.9905 
42494 4 -2.79293 75.7723 
42498 4 -1.07133 75.5824 
42495 4 -1.87732 76.1743 
42493 4 -2.6833 76.7662 
42507 4 0.54064 74.3986 
ITEM: TIMESTEP
310000
ITEM: NUMBER OF ATOMS
15
ITEM: BOX BOUNDS ff fm pp
-4.1000000000000000e+01 4.1000000000000000e+01
0.0000000000000000e+00 2.0000000000000000e+02
-2.5000000000000000e-01 2.5000000000000000e-01
ITEM: ATOMS id type x y 
42503 4 -3.41597 69.8252 
42504 4 -2.50723 70.2425 
42499 4 -3.32304 70.8208 
42505 4 -1.59849 70.6599 
42506 4 -0.689749 71.0773 
42500 4 -2.4143 71.2382 
42501 4 -1.50556 71.6556 
42496 4 -3.2301 71.8165 
42497 4 -2.32136 72.2338 
42502 4 -0.596815 72.0729 
42494 4 -3.13717 72.8121 
42498 4 -1.41262 72.6512 
42495 4 -2.22843 73.2295 
42493 4 -3.04423 73.8078 
42507 4 0.218991 71.4946 
ITEM: TIMESTEP
320000
ITEM: NUMBER OF ATOMS
15
ITEM: BOX BOUNDS ff fm pp
-4.1000000000000000e+01 4.1000000000000000e+01
0.0000000000000000e+00 2.0000000000000000e+02
-2.5000000000000000e-01 2.5000000000000000e-01
ITEM: ATOMS id type x y 
42503 4 -3.74699 66.7883 
42504 4 -2.84317 67.2162 
42499 4 -3.66565 67.785 
42505 4 -1.93935 67.6441 
42506 4 -1.03553 68.072 
42496 4 -3.58431 68.7816 
42500 4 -2.76183 68.2129 
42501 4 -1.85801 68.6408 
42507 4 -0.131709 68.5 
42497 4 -2.68049 69.2095 
42502 4 -0.954192 69.0687 
42494 4 -3.50298 69.7783 
42498 4 -1.77667 69.6375 
42495 4 -2.59916 70.2062 
42493 4 -3.42164 70.775 
ITEM: TIMESTEP
330000
ITEM: NUMBER OF ATOMS
15
ITEM: BOX BOUNDS ff fm pp
-4.1000000000000000e+01 4.1000000000000000e+01
0.0000000000000000e+00 2.0000000000000000e+02
-2.5000000000000000e-01 2.5000000000000000e-01
ITEM: ATOMS id type x y 
42498 4 -2.15872 66.5392 
42503 4 -4.11779 63.6823 
42504 4 -3.21567 64.1138 
42505 4 -2.31354 64.5452 
42499 4 -4.04038 64.6793 
42500 4 -3.13826 65.1107 
42506 4 -1.41141 64.9767 
42496 4 -3.96298 65.6763 
42501 4 -2.23613 65.5422 
42507 4 -0.509287 65.4082 
42502 4 -1.33401 65.9737 
42497 4 -3.06085 66.1077 
42494 4 -3.88557 66.6732 
42495 4 -2.98344 67.1047 
42493 4 -3.80816 67.6702 
ITEM: TIMESTEP
340000
ITEM: NUMBER OF ATOMS
15
ITEM: BOX BOUNDS ff fm pp
-4.1000000000000000e+01 4.1000000000000000e+01
0.0000000000000000e+00 2.0000000000000000e+02
-2.5000000000000000e-01 2.5000000000000000e-01
ITEM: ATOMS id type x y 
42503 4 -4.51924 60.5002 
42504 4 -3.61704 60.9315 
42499 4 -4.44166 61.4971 
42505 4 -2.71484 61.3628 
42500 4 -3.53946 61.9285 
42506 4 -1.81264 61.7941 
42496 4 -4.36408 62.4941 
42501 4 -2.63726 62.3598 
42507 4 -0.91044 62.2254 
42497 4 -3.46188 62.9254 
42498 4 -2.55968 63.3567 
42502 4 -1.73506 62.7911 
42494 4 -4.2865 63.4911 
42495 4 -3.3843 63.9224 
42493 4 -4.20892 64.488 
ITEM: TIMESTEP
350000
ITEM: NUMBER OF ATOMS
15
ITEM: BOX BOUNDS ff fm pp
-4.1000000000000000e+01 4.1000000000000000e+01
0.0000000000000000e+00 2.0000000000000000e+02
-2.5000000000000000e-01 2.5000000000000000e-01
ITEM: ATOMS id type x y 
42503 4 -4.95862 57.2463 
42504 4 -4.05422 57.673 
42499 4 -4.87594 58.2428 
42505 4 -3.14983 58.0997 
42506 4 -2.24543 58.5264 
42500 4 -3.97154 58.6695 
42501 4 -3.06715 59.0962 
42507 4 -1.34104 58.9531 
42496 4 -4.79326 59.2394 
42497 4 -3.88887 59.6661 
42502 4 -2.16275 59.5229 
42494 4 -4.71058 60.2359 
42498 4 -2.98447 60.0928 
42495 4 -3.80619 60.6626 
42493 4 -4.6279 61.2325 
ITEM: TIMESTEP
360000
ITEM: NUMBER OF ATOMS
15
ITEM: BOX BOUNDS ff fm pp
-4.1000000000000000e+01 4.1000000000000000e+01
0.0000000000000000e+00 2.0000000000000000e+02
-2.5000000000000000e-01 2.5000000000000000e-01
ITEM: ATOMS id type x y 
42503 4 -5.42091 53.9016 
42504 4 -4.51319 54.3212 
42499 4 -5.33041 54.8975 
42505 4 -3.60547 54.7408 
42500 4 -4.42269 55.3171 
42506 4 -2.69776 55.1604 
42496 4 -5.23991 55.8934 
42501 4 -3.51498 55.7367 
42502 4 -2.60726 56.1563 
42507 4 -1.79004 55.58 
42497 4 -4.33219 56.313 
42498 4 -3.42448 56.7326 
42494 4 -5.14941 56.8893 
42495 4 -4.2417 57.3088 
42493 4 -5.05892 57.8851 
ITEM: TIMESTEP
370000
ITEM: NUMBER OF ATOMS
15
ITEM: BOX BOUNDS ff fm pp
-4.1000000000000000e+01 4.1000000000000000e+01
0.0000000000000000e+00 2.0000000000000000e+02
-2.5000000000000000e-01 2.5000000000000000e-01
ITEM: ATOMS id type x y 
42503 4 -5.89725 50.4475 
42504 4 -4.98601 50.8594 
42505 4 -4.07477 51.2713 
42499 4 -5.79831 51.4426 
42500 4 -4.88707 51.8545 
42506 4 -3.16353 51.6832 
42496 4 -5.69938 52.4377 
42501 4 -3.97583 52.2664 
42507 4 -2.25229 52.095 
42497 4 -4.78813 52.8495 
42502 4 -3.06459 52.6782 
42494 4 -5.60044 53.4327 
42498 4 -3.87689 53.2614 
42495 4 -4.6892 53.8446 
42493 4 -5.5015 54.4278 
ITEM: TIMESTEP
380000
ITEM: NUMBER OF ATOMS
15
ITEM: BOX BOUNDS ff fm pp
-4.1000000000000000e+01 4.1000000000000000e+01
0.0000000000000000e+00 2.0000000000000000e+02
-2.5000000000000000e-01 2.5000000000000000e-01
ITEM: ATOMS id type x y 
42503 4 -6.40015 46.9102 
42504 4 -5.48245 47.3075 
42505 4 -4.56476 47.7048 
42499 4 -6.28535 47.9036 
42500 4 -5.36765 48.3008 
42506 4 -3.64706 48.1021 
42496 4 -6.17055 48.8969 
42501 4 -4.44996 48.6981 
42507 4 -2.72937 48.4993 
42497 4 -5.25286 49.2942 
42502 4 -3.53227 49.0954 
42494 4 -6.05576 49.8903 
42498 4 -4.33516 49.6915 
42495 4 -5.13806 50.2876 
42493 4 -5.94096 50.8837 
ITEM: TIMESTEP
390000
ITEM: NUMBER OF ATOMS
15
ITEM: BOX BOUNDS ff fm pp
-4.1000000000000000e+01 4.1000000000000000e+01
0.0000000000000000e+00 2.0000000000000000e+02
-2.5000000000000000e-01 2.5000000000000000e-01
ITEM: ATOMS id type x y 
42503 4 -6.90816 43.3053 
42504 4 -5.98473 43.689 
42505 4 -5.06129 44.0728 
42499 4 -6.77877 44.2968 
42500 4 -5.85534 44.6806 
42506 4 -4.13785 44.4565 
42501 4 -4.9319 45.0643 
42507 4 -3.21442 44.8403 
42496 4 -6.64938 45.2884 
42497 4 -5.72595 45.6722 
42502 4 -4.00846 45.4481 
42494 4 -6.51999 46.28 
42498 4 -4.80251 46.0559 
42495 4 -5.59655 46.6637 
42493 4 -6.3906 47.2716 
ITEM: TIMESTEP
400000
ITEM: NUMBER OF ATOMS
15
ITEM: BOX BOUNDS ff fm pp
-4.1000000000000000e+01 4.1000000000000000e+01
0.0000000000000000e+00 2.0000000000000000e+02
-2.5000000000000000e-01 2.5000000000000000e-01
ITEM: ATOMS id type x y 
42503 4 -7.41775 39.6336 
42504 4 -6.49088 40.009 
42505 4 -5.56401 40.3844 
42499 4 -7.2794 40.624 
42500 4 -6.35253 40.9994 
42506 4 -4.63714 40.7598 
42496 4 -7.14105 41.6143 
42501 4 -5.42566 41.3747 
42507 4 -3.71027 41.1352 
42497 4 -6.21418 41.9897 
42502 4 -4.49879 41.7501 
42494 4 -7.00269 42.6047 
42498 4 -5.28731 42.3651 
42495 4 -6.07582 42.9801 
42493 4 -6.86434 43.5951 
ITEM: TIMESTEP
410000
ITEM: NUMBER OF ATOMS
15
ITEM: BOX BOUNDS ff fm pp
-4.1000000000000000e+01 4.1000000000000000e+01
0.0000000000000000e+00 2.0000000000000000e+02
-2.5000000000000000e-01 2.5000000000000000e-01
ITEM: ATOMS id type x y 
42503 4 -7.94457 35.9136 
42504 4 -7.01391 36.2795 
42505 4 -6.08324 36.6454 
42499 4 -7.79608 36.9025 
42500 4 -6.86542 37.2684 
42506 4 -5.15258 37.0113 
42507 4 -4.22191 37.3771 
42496 4 -7.6476 37.8914 
42501 4 -5.93476 37.6343 
42502 4 -5.00409 38.0002 
42497 4 -6.71693 38.2573 
42498 4 -5.78627 38.6232 
42494 4 -7.49911 38.8803 
42495 4 -6.56845 39.2462 
42493 4 -7.35063 39.8692 
ITEM: TIMESTEP
420000
ITEM: NUMBER OF ATOMS
15
ITEM: BOX BOUNDS ff fm pp
-4.1000000000000000e+01 4.1000000000000000e+01
0.0000000000000000e+00 2.0000000000000000e+02
-2.5000000000000000e-01 2.5000000000000000e-01
ITEM: ATOMS id type x y 
42503 4 -8.48026 32.1602 
42504 4 -7.54528 32.5149 
42499 4 -8.31996 33.1472 
42505 4 -6.61031 32.8696 
42506 4 -5.67534 33.2244 
42500 4 -7.38498 33.502 
42501 4 -6.45001 33.8567 
42507 4 -4.74036 33.5791 
42496 4 -8.15966 34.1343 
42502 4 -5.51504 34.2114 
42497 4 -7.22468 34.489 
42498 4 -6.28971 34.8437 
42494 4 -7.99936 35.1213 
42495 4 -7.06438 35.4761 
42493 4 -7.83906 36.1084 
ITEM: TIMESTEP
430000
ITEM: NUMBER OF ATOMS
15
ITEM: BOX BOUNDS ff fm pp
-4.1000000000000000e+01 4.1000000000000000e+01
0.0000000000000000e+00 2.0000000000000000e+02
-2.5000000000000000e-01 2.5000000000000000e-01
ITEM: ATOMS id type x y 
42503 4 -9.02866 28.3762 
42504 4 -8.08926 28.719 
42505 4 -7.14985 29.0618 
42499 4 -8.85583 29.3612 
42506 4 -6.21045 29.4046 
42500 4 -7.91643 29.704 
42501 4 -6.97702 30.0468 
42507 4 -5.27104 29.7475 
42496 4 -8.683 30.3461 
42497 4 -7.74359 30.6889 
42502 4 -6.03761 30.3896 
42494 4 -8.51017 31.331 
42498 4 -6.80419 31.0317 
42495 4 -7.57076 31.6738 
42493 4 -8.33734 32.3159 
ITEM: TIMESTEP
440000
ITEM: NUMBER OF ATOMS
15
ITEM: BOX BOUNDS ff fm pp
-4.1000000000000000e+01 4.1000000000000000e+01
0.0000000000000000e+00 2.0000000000000000e+02
-2.5000000000000000e-01 2.5000000000000000e-01
ITEM: ATOMS id type x y 
42503 4 -9.59991 24.6235 
42504 4 -8.65657 24.9554 
42505 4 -7.71323 25.2872 
42499 4 -9.41561 25.6064 
42500 4 -8.47227 25.9382 
42506 4 -6.76989 25.619 
42507 4 -5.82656 25.9509 
42496 4 -9.23131 26.5892 
42501 4 -7.52893 26.27 
42502 4 -6.58559 26.6019 
42497 4 -8.28797 26.9211 
42498 4 -7.34463 27.2529 
42494 4 -9.047 27.5721 
42495 4 -8.10367 27.9039 
42493 4 -8.8627 28.5549 
ITEM: TIMESTEP
450000
ITEM: NUMBER OF ATOMS
15
ITEM: BOX BOUNDS ff fm pp
-4.1000000000000000e+01 4.1000000000000000e+01
0.0000000000000000e+00 2.0000000000000000e+02
-2.5000000000000000e-01 2.5000000000000000e-01
ITEM: ATOMS id type x y 
42503 4 -10.1905 20.926 
42504 4 -9.2441 21.249 
42505 4 -8.29771 21.572 
42499 4 -9.99703 21.9071 
42500 4 -9.05064 22.2301 
42506 4 -7.35132 21.8951 
42507 4 -6.40493 22.2181 
42496 4 -9.80358 22.8882 
42501 4 -8.10425 22.5531 
42502 4 -7.15786 22.8762 
42497 4 -8.85719 23.2112 
42498 4 -7.9108 23.5342 
42494 4 -9.61012 23.8693 
42495 4 -8.66373 24.1923 
42493 4 -9.41667 24.8503 
ITEM: TIMESTEP
460000
ITEM: NUMBER OF ATOMS
15
ITEM: BOX BOUNDS ff fm pp
-4.1000000000000000e+01 4.1000000000000000e+01
0.0000000000000000e+00 2.0000000000000000e+02
-2.5000000000000000e-01 2.5000000000000000e-01
ITEM: ATOMS id type x y 
42503 4 -10.7895 17.336 
42504 4 -9.84547 17.6659 
42505 4 -8.90147 17.9959 
42499 4 -10.6032 18.3185 
42500 4 -9.65919 18.6484 
42506 4 -7.95746 18.3258 
42507 4 -7.01346 18.6557 
42496 4 -10.4169 19.3009 
42501 4 -8.71519 18.9783 
42502 4 -7.77118 19.3083 
42497 4 -9.47291 19.6309 
42498 4 -8.52891 19.9608 
42494 4 -10.2306 20.2834 
42495 4 -9.28663 20.6133 
42493 4 -10.0444 21.2659 
ITEM: TIMESTEP
470000
ITEM: NUMBER OF ATOMS
15
ITEM: BOX BOUNDS ff fm pp
-4.1000000000000000e+01 4.1000000000000000e+01
0.0000000000000000e+00 2.0000000000000000e+02
-2.5000000000000000e-01 2.5000000000000000e-01
ITEM: ATOMS id type x y 
42503 4 -11.3546 13.9755 
42504 4 -10.4264 14.3476 
42505 4 -9.49824 14.7197 
42499 4 -11.2128 14.9654 
42500 4 -10.2846 15.3375 
42506 4 -8.57003 15.0918 
42501 4 -9.35635 15.7095 
42507 4 -7.64183 15.4638 
42496 4 -11.0709 15.9553 
42497 4 -10.1427 16.3273 
42502 4 -8.42815 16.0816 
42494 4 -10.929 16.9451 
42498 4 -9.21446 16.6994 
42495 4 -10.0008 17.3172 
42493 4 -10.7871 17.935 
ITEM: TIMESTEP
480000
ITEM: NUMBER OF ATOMS
15
ITEM: BOX BOUNDS ff fm pp
-4.1000000000000000e+01 4.1000000000000000e+01
0.0000000000000000e+00 2.0000000000000000e+02
-2.5000000000000000e-01 2.5000000000000000e-01
ITEM: ATOMS id type x y 
42503 4 -11.9154 11.3713 
42504 4 -11.0025 11.7794 
42499 4 -11.8124 12.3659 
42505 4 -10.0896 12.1875 
42500 4 -10.8995 12.7741 
42506 4 -9.17664 12.5957 
42507 4 -8.26372 13.0038 
42496 4 -11.7094 13.3606 
42501 4 -9.98655 13.1822 
42502 4 -9.07363 13.5904 
42497 4 -10.7965 13.7687 
42498 4 -9.88355 14.1769 
42494 4 -11.6064 14.3552 
42495 4 -10.6935 14.7634 