ITEM: TIMESTEP
0
ITEM: NUMBER OF ATOMS
25
ITEM: BOX BOUNDS ff fm pp
-4.1000000000000000e+01 4.1000000000000000e+01
0.0000000000000000e+00 2.0000000000000000e+02
-2.5000000000000000e-01 2.5000000000000000e-01
ITEM: ATOMS id type x y 
42567 6 18 140 
42566 6 19 140 
42565 6 20 140 
42564 6 21 140 
42563 6 22 140 
42572 6 18 140.866 
42571 6 19 140.866 
42570 6 20 140.866 
42569 6 21 140.866 
42568 6 22 140.866 
42577 6 18 141.732 
42576 6 19 141.732 
42575 6 20 141.732 
42574 6 21 141.732 
42573 6 22 141.732 
42582 6 18 142.598 
42581 6 19 142.598 
42580 6 20 142.598 
42579 6 21 142.598 
42578 6 22 142.598 
42587 6 18 143.464 
42586 6 19 143.464 
42585 6 20 143.464 
42584 6 21 143.464 
42583 6 22 143.464 
ITEM: TIMESTEP
10000
ITEM: NUMBER OF ATOMS
25
ITEM: BOX BOUNDS ff fm pp
-4.1000000000000000e+01 4.1000000000000000e+01
0.0000000000000000e+00 2.0000000000000000e+02
-2.5000000000000000e-01 2.5000000000000000e-01
ITEM: ATOMS id type x y 
42567 6 18 139.875 
42566 6 19 139.875 
42565 6 20 139.875 
42564 6 21 139.875 
42563 6 22 139.875 
42572 6 18 140.741 
42571 6 19 140.741 
42570 6 20 140.741 
42569 6 21 140.741 
42568 6 22 140.741 
42577 6 18 141.607 
42576 6 19 141.607 
42575 6 20 141.607 
42574 6 21 141.607 
42573 6 22 141.607 
42582 6 18 142.473 
42581 6 19 142.473 
42580 6 20 142.473 
42579 6 21 142.473 
42578 6 22 142.473 
42587 6 18 143.339 
42586 6 19 143.339 
42585 6 20 143.339 
42584 6 21 143.339 
42583 6 22 143.339 
ITEM: TIMESTEP
20000
ITEM: NUMBER OF ATOMS
25
ITEM: BOX BOUNDS ff fm pp
-4.1000000000000000e+01 4.1000000000000000e+01
0.0000000000000000e+00 2.0000000000000000e+02
-2.5000000000000000e-01 2.5000000000000000e-01
ITEM: ATOMS id type x y 
42567 6 18 139.5 
42566 6 19 139.5 
42565 6 20 139.5 
42564 6 21 139.5 
42563 6 22 139.5 
42572 6 18 140.366 
42571 6 19 140.366 
42570 6 20 140.366 
42569 6 21 140.366 
42568 6 22 140.366 
42577 6 18 141.232 
42576 6 19 141.232 
42575 6 20 141.232 
42574 6 21 141.232 
42573 6 22 141.232 
42582 6 18 142.098 
42581 6 19 142.098 
42580 6 20 142.098 
42579 6 21 142.098 
42578 6 22 142.098 
42587 6 18 142.964 
42586 6 19 142.964 
42585 6 20 142.964 
42584 6 21 142.964 
42583 6 22 142.964 
ITEM: TIMESTEP
30000
ITEM: NUMBER OF ATOMS
25
ITEM: BOX BOUNDS ff fm pp
-4.1000000000000000e+01 4.1000000000000000e+01
0.0000000000000000e+00 2.0000000000000000e+02
-2.5000000000000000e-01 2.5000000000000000e-01
ITEM: ATOMS id type x y 
42567 6 18 138.875 
42566 6 19 138.875 
42565 6 20 138.875 
42564 6 21 138.875 
42563 6 22 138.875 
42572 6 18 139.741 
42571 6 19 139.741 
42570 6 20 139.741 
42569 6 21 139.741 
42568 6 22 139.741 
42577 6 18 140.607 
42576 6 19 140.607 
42575 6 20 140.607 
42574 6 21 140.607 
42573 6 22 140.607 
42582 6 18 141.473 
42581 6 19 141.473 
42580 6 20 141.473 
42579 6 21 141.473 
42578 6 22 141.473 
42587 6 18 142.339 
42586 6 19 142.339 
42585 6 20 142.339 
42584 6 21 142.339 
42583 6 22 142.339 
ITEM: TIMESTEP
40000
ITEM: NUMBER OF ATOMS
25
ITEM: BOX BOUNDS ff fm pp
-4.1000000000000000e+01 4.1000000000000000e+01
0.0000000000000000e+00 2.0000000000000000e+02
-2.5000000000000000e-01 2.5000000000000000e-01
ITEM: ATOMS id type x y 
42567 6 18 138 
42566 6 19 138 
42565 6 20 138 
42564 6 21 138 
42563 6 22 138 
42572 6 18 138.866 
42571 6 19 138.866 
42570 6 20 138.866 
42569 6 21 138.866 
42568 6 22 138.866 
42577 6 18 139.732 
42576 6 19 139.732 
42575 6 20 139.732 
42574 6 21 139.732 
42573 6 22 139.732 
42582 6 18 140.598 
42581 6 19 140.598 
42580 6 20 140.598 
42579 6 21 140.598 
42578 6 22 140.598 
42587 6 18 141.464 
42586 6 19 141.464 
42585 6 20 141.464 
42584 6 21 141.464 
42583 6 22 141.464 
ITEM: TIMESTEP
50000
ITEM: NUMBER OF ATOMS
25
ITEM: BOX BOUNDS ff fm pp
-4.1000000000000000e+01 4.1000000000000000e+01
0.0000000000000000e+00 2.0000000000000000e+02
-2.5000000000000000e-01 2.5000000000000000e-01
ITEM: ATOMS id type x y 
42567 6 18 136.875 
42566 6 19 136.875 
42565 6 20 136.875 
42564 6 21 136.875 
42563 6 22 136.875 
42572 6 18 137.741 
42571 6 19 137.741 
42570 6 20 137.741 
42569 6 21 137.741 
42568 6 22 137.741 
42577 6 18 138.607 
42576 6 19 138.607 
42575 6 20 138.607 
42574 6 21 138.607 
42573 6 22 138.607 
42582 6 18 139.473 
42581 6 19 139.473 
42580 6 20 139.473 
42579 6 21 139.473 
42578 6 22 139.473 
42587 6 18 140.339 
42586 6 19 140.339 
42585 6 20 140.339 
42584 6 21 140.339 
42583 6 22 140.339 
ITEM: TIMESTEP
60000
ITEM: NUMBER OF ATOMS
25
ITEM: BOX BOUNDS ff fm pp
-4.1000000000000000e+01 4.1000000000000000e+01
0.0000000000000000e+00 2.0000000000000000e+02
-2.5000000000000000e-01 2.5000000000000000e-01
ITEM: ATOMS id type x y 
42567 6 18 135.5 
42566 6 19 135.5 
42565 6 20 135.5 
42564 6 21 135.5 
42563 6 22 135.5 
42572 6 18 136.366 
42571 6 19 136.366 
42570 6 20 136.366 
42569 6 21 136.366 
42568 6 22 136.366 
42577 6 18 137.232 
42576 6 19 137.232 
42575 6 20 137.232 
42574 6 21 137.232 
42573 6 22 137.232 
42582 6 18 138.098 
42581 6 19 138.098 
42580 6 20 138.098 
42579 6 21 138.098 
42578 6 22 138.098 
42587 6 18 138.964 
42586 6 19 138.964 
42585 6 20 138.964 
42584 6 21 138.964 
42583 6 22 138.964 
ITEM: TIMESTEP
70000
ITEM: NUMBER OF ATOMS
25
ITEM: BOX BOUNDS ff fm pp
-4.1000000000000000e+01 4.1000000000000000e+01
0.0000000000000000e+00 2.0000000000000000e+02
-2.5000000000000000e-01 2.5000000000000000e-01
ITEM: ATOMS id type x y 
42567 6 18 133.875 
42566 6 19 133.875 
42565 6 20 133.875 
42564 6 21 133.875 
42563 6 22 133.875 
42572 6 18 134.741 
42571 6 19 134.741 
42570 6 20 134.741 
42569 6 21 134.741 
42568 6 22 134.741 
42577 6 18 135.607 
42576 6 19 135.607 
42575 6 20 135.607 
42574 6 21 135.607 
42573 6 22 135.607 
42582 6 18 136.473 
42581 6 19 136.473 
42580 6 20 136.473 
42579 6 21 136.473 
42578 6 22 136.473 
42587 6 18 137.339 
42586 6 19 137.339 
42585 6 20 137.339 
42584 6 21 137.339 
42583 6 22 137.339 
ITEM: TIMESTEP
80000
ITEM: NUMBER OF ATOMS
25
ITEM: BOX BOUNDS ff fm pp
-4.1000000000000000e+01 4.1000000000000000e+01
0.0000000000000000e+00 2.0000000000000000e+02
-2.5000000000000000e-01 2.5000000000000000e-01
ITEM: ATOMS id type x y 
42567 6 18 132 
42566 6 19 132 
42565 6 20 132 
42564 6 21 132 
42563 6 22 132 
42572 6 18 132.866 
42571 6 19 132.866 
42570 6 20 132.866 
42569 6 21 132.866 
42568 6 22 132.866 
42577 6 18 133.732 
42576 6 19 133.732 
42575 6 20 133.732 
42574 6 21 133.732 
42573 6 22 133.732 
42582 6 18 134.598 
42581 6 19 134.598 
42580 6 20 134.598 
42579 6 21 134.598 
42578 6 22 134.598 
42587 6 18 135.464 
42586 6 19 135.464 
42585 6 20 135.464 
42584 6 21 135.464 
42583 6 22 135.464 
ITEM: TIMESTEP
90000
ITEM: NUMBER OF ATOMS
25
ITEM: BOX BOUNDS ff fm pp
-4.1000000000000000e+01 4.1000000000000000e+01
0.0000000000000000e+00 2.0000000000000000e+02
-2.5000000000000000e-01 2.5000000000000000e-01
ITEM: ATOMS id type x y 
42567 6 18 129.875 
42566 6 19 129.875 
42565 6 20 129.875 
42564 6 21 129.875 
42563 6 22 129.875 
42572 6 18 130.741 
42571 6 19 130.741 
42570 6 20 130.741 
42569 6 21 130.741 
42568 6 22 130.741 
42577 6 18 131.607 
42576 6 19 131.607 
42575 6 20 131.607 
42574 6 21 131.607 
42573 6 22 131.607 
42582 6 18 132.473 
42581 6 19 132.473 
42580 6 20 132.473 
42579 6 21 132.473 
42578 6 22 132.473 
42587 6 18 133.339 
42586 6 19 133.339 
42585 6 20 133.339 
42584 6 21 133.339 
42583 6 22 133.339 
ITEM: TIMESTEP
100000
ITEM: NUMBER OF ATOMS
25
ITEM: BOX BOUNDS ff fm pp
-4.1000000000000000e+01 4.1000000000000000e+01
0.0000000000000000e+00 2.0000000000000000e+02
-2.5000000000000000e-01 2.5000000000000000e-01
ITEM: ATOMS id type x y 
42567 6 18 127.5 
42566 6 19 127.5 
42565 6 20 127.5 
42564 6 21 127.5 
42563 6 22 127.5 
42572 6 18 128.366 
42571 6 19 128.366 
42570 6 20 128.366 
42569 6 21 128.366 
42568 6 22 128.366 
42577 6 18 129.232 
42576 6 19 129.232 
42575 6 20 129.232 
42574 6 21 129.232 
42573 6 22 129.232 
42582 6 18 130.098 
42581 6 19 130.098 
42580 6 20 130.098 
42579 6 21 130.098 
42578 6 22 130.098 
42587 6 18 130.964 
42586 6 19 130.964 
42585 6 20 130.964 
42584 6 21 130.964 
42583 6 22 130.964 
ITEM: TIMESTEP
110000
ITEM: NUMBER OF ATOMS
25
ITEM: BOX BOUNDS ff fm pp
-4.1000000000000000e+01 4.1000000000000000e+01
0.0000000000000000e+00 2.0000000000000000e+02
-2.5000000000000000e-01 2.5000000000000000e-01
ITEM: ATOMS id type x y 
42567 6 18 124.875 
42566 6 19 124.875 
42565 6 20 124.875 
42564 6 21 124.875 
42563 6 22 124.875 
42572 6 18 125.741 
42571 6 19 125.741 
42570 6 20 125.741 
42569 6 21 125.741 
42568 6 22 125.741 
42577 6 18 126.607 
42576 6 19 126.607 
42575 6 20 126.607 
42574 6 21 126.607 
42573 6 22 126.607 
42582 6 18 127.473 
42581 6 19 127.473 
42580 6 20 127.473 
42579 6 21 127.473 
42578 6 22 127.473 
42587 6 18 128.339 
42586 6 19 128.339 
42585 6 20 128.339 
42584 6 21 128.339 
42583 6 22 128.339 
ITEM: TIMESTEP
120000
ITEM: NUMBER OF ATOMS
25
ITEM: BOX BOUNDS ff fm pp
-4.1000000000000000e+01 4.1000000000000000e+01
0.0000000000000000e+00 2.0000000000000000e+02
-2.5000000000000000e-01 2.5000000000000000e-01
ITEM: ATOMS id type x y 
42567 6 18 122 
42566 6 19 122 
42565 6 20 122 
42564 6 21 122 
42563 6 22 122 
42572 6 18 122.866 
42571 6 19 122.866 
42570 6 20 122.866 
42569 6 21 122.866 
42568 6 22 122.866 
42577 6 18 123.732 
42576 6 19 123.732 
42575 6 20 123.732 
42574 6 21 123.732 
42573 6 22 123.732 
42582 6 18 124.598 
42581 6 19 124.598 
42580 6 20 124.598 
42579 6 21 124.598 
42578 6 22 124.598 
42587 6 18 125.464 
42586 6 19 125.464 
42585 6 20 125.464 
42584 6 21 125.464 
42583 6 22 125.464 
ITEM: TIMESTEP
130000
ITEM: NUMBER OF ATOMS
25
ITEM: BOX BOUNDS ff fm pp
-4.1000000000000000e+01 4.1000000000000000e+01
0.0000000000000000e+00 2.0000000000000000e+02
-2.5000000000000000e-01 2.5000000000000000e-01
ITEM: ATOMS id type x y 
42584 6 21.0002 122.373 
42583 6 22.0002 122.371 
42567 6 17.9944 118.914 
42566 6 18.9944 118.912 
42565 6 19.9944 118.911 
42564 6 20.9944 118.909 
42563 6 21.9944 118.907 
42572 6 17.9959 119.78 
42571 6 18.9959 119.778 
42570 6 19.9959 119.777 
42569 6 20.9959 119.775 
42568 6 21.9959 119.773 
42577 6 17.9973 120.646 
42576 6 18.9973 120.644 
42575 6 19.9973 120.643 
42574 6 20.9973 120.641 
42573 6 21.9973 120.639 
42582 6 17.9988 121.512 
42581 6 18.9988 121.51 
42580 6 19.9988 121.509 
42579 6 20.9988 121.507 
42578 6 21.9987 121.505 
42587 6 18.0002 122.378 
42586 6 19.0002 122.376 
42585 6 20.0002 122.375 
ITEM: TIMESTEP
140000
ITEM: NUMBER OF ATOMS
25
ITEM: BOX BOUNDS ff fm pp
-4.1000000000000000e+01 4.1000000000000000e+01
0.0000000000000000e+00 2.0000000000000000e+02
-2.5000000000000000e-01 2.5000000000000000e-01
ITEM: ATOMS id type x y 
42567 6 18.0019 115.734 
42566 6 19.0019 115.731 
42565 6 20.0019 115.729 
42564 6 21.0019 115.727 
42563 6 22.0019 115.725 
42572 6 18.0037 116.6 
42571 6 19.0037 116.597 
42570 6 20.0037 116.595 
42569 6 21.0037 116.593 
42568 6 22.0037 116.591 
42577 6 18.0055 117.466 
42576 6 19.0055 117.463 
42575 6 20.0055 117.461 
42574 6 21.0055 117.459 
42573 6 22.0055 117.457 
42582 6 18.0073 118.332 
42581 6 19.0073 118.329 
42580 6 20.0072 118.327 
42579 6 21.0072 118.325 
42578 6 22.0072 118.323 
42587 6 18.009 119.198 
42586 6 19.009 119.195 
42585 6 20.009 119.193 
42584 6 21.009 119.191 
42583 6 22.009 119.189 
ITEM: TIMESTEP
150000
ITEM: NUMBER OF ATOMS
25
ITEM: BOX BOUNDS ff fm pp
-4.1000000000000000e+01 4.1000000000000000e+01
0.0000000000000000e+00 2.0000000000000000e+02
-2.5000000000000000e-01 2.5000000000000000e-01
ITEM: ATOMS id type x y 
42567 6 18.0521 112.456 
42566 6 19.052 112.46 
42565 6 20.052 112.464 
42564 6 21.052 112.469 
42563 6 22.052 112.473 
42572 6 18.0483 113.322 
42571 6 19.0483 113.326 
42570 6 20.0483 113.33 
42569 6 21.0483 113.335 
42568 6 22.0482 113.339 
42577 6 18.0445 114.188 
42576 6 19.0445 114.192 
42575 6 20.0445 114.196 
42574 6 21.0445 114.201 
42573 6 22.0445 114.205 
42582 6 18.0407 115.054 
42581 6 19.0407 115.058 
42580 6 20.0407 115.062 
42579 6 21.0407 115.067 
42578 6 22.0407 115.071 
42587 6 18.037 115.92 
42586 6 19.0369 115.924 
42585 6 20.0369 115.928 
42584 6 21.0369 115.933 
42583 6 22.0369 115.937 
ITEM: TIMESTEP
160000
ITEM: NUMBER OF ATOMS
25
ITEM: BOX BOUNDS ff fm pp
-4.1000000000000000e+01 4.1000000000000000e+01
0.0000000000000000e+00 2.0000000000000000e+02
-2.5000000000000000e-01 2.5000000000000000e-01
ITEM: ATOMS id type x y 
42567 6 18.134 109.172 
42566 6 19.134 109.176 
42565 6 20.134 109.18 
42564 6 21.134 109.184 
42563 6 22.134 109.188 
42572 6 18.1307 110.038 
42571 6 19.1307 110.042 
42570 6 20.1307 110.046 
42569 6 21.1307 110.05 
42568 6 22.1307 110.054 
42577 6 18.1273 110.904 
42576 6 19.1273 110.908 
42575 6 20.1273 110.912 
42574 6 21.1273 110.916 
42573 6 22.1273 110.92 
42582 6 18.124 111.77 
42581 6 19.1239 111.774 
42580 6 20.1239 111.778 
42579 6 21.1239 111.782 
42578 6 22.1239 111.786 
42587 6 18.1206 112.636 
42586 6 19.1206 112.64 
42585 6 20.1206 112.644 
42584 6 21.1206 112.648 
42583 6 22.1206 112.652 
ITEM: TIMESTEP
170000
ITEM: NUMBER OF ATOMS
25
ITEM: BOX BOUNDS ff fm pp
-4.1000000000000000e+01 4.1000000000000000e+01
0.0000000000000000e+00 2.0000000000000000e+02
-2.5000000000000000e-01 2.5000000000000000e-01
ITEM: ATOMS id type x y 
42567 6 18.2692 105.829 
42566 6 19.2692 105.829 
42565 6 20.2692 105.829 
42564 6 21.2692 105.829 
42563 6 22.2692 105.83 
42572 6 18.2691 106.695 
42571 6 19.2691 106.695 
42570 6 20.2691 106.695 
42569 6 21.2691 106.695 
42568 6 22.2691 106.696 
42577 6 18.269 107.561 
42576 6 19.269 107.561 
42575 6 20.269 107.561 
42574 6 21.269 107.561 
42573 6 22.269 107.562 
42582 6 18.2689 108.427 
42581 6 19.2689 108.427 
42580 6 20.2689 108.427 
42579 6 21.2689 108.427 
42578 6 22.2689 108.428 
42587 6 18.2687 109.293 
42586 6 19.2687 109.293 
42585 6 20.2687 109.293 
42584 6 21.2687 109.293 
42583 6 22.2687 109.294 
ITEM: TIMESTEP
180000
ITEM: NUMBER OF ATOMS
25
ITEM: BOX BOUNDS ff fm pp
-4.1000000000000000e+01 4.1000000000000000e+01
0.0000000000000000e+00 2.0000000000000000e+02
-2.5000000000000000e-01 2.5000000000000000e-01
ITEM: ATOMS id type x y 
42567 6 18.4748 102.397 
42566 6 19.4748 102.398 
42565 6 20.4748 102.399 
42564 6 21.4748 102.4 
42563 6 22.4748 102.4 
42572 6 18.4741 103.263 
42571 6 19.4741 103.264 
42570 6 20.4741 103.265 
42569 6 21.4741 103.266 
42568 6 22.4741 103.266 
42577 6 18.4733 104.129 
42576 6 19.4733 104.13 
42575 6 20.4733 104.131 
42574 6 21.4733 104.132 
42573 6 22.4733 104.132 
42582 6 18.4725 104.995 
42581 6 19.4725 104.996 
42580 6 20.4725 104.997 
42579 6 21.4725 104.998 
42578 6 22.4725 104.998 
42587 6 18.4718 105.861 
42586 6 19.4718 105.862 
42585 6 20.4718 105.863 
42584 6 21.4718 105.864 
42583 6 22.4718 105.864 
ITEM: TIMESTEP
190000
ITEM: NUMBER OF ATOMS
25
ITEM: BOX BOUNDS ff fm pp
-4.1000000000000000e+01 4.1000000000000000e+01
0.0000000000000000e+00 2.0000000000000000e+02
-2.5000000000000000e-01 2.5000000000000000e-01
ITEM: ATOMS id type x y 
42567 6 18.7527 98.8965 
42566 6 19.7527 98.8998 
42565 6 20.7526 98.9031 
42564 6 21.7526 98.9064 
42563 6 22.7526 98.9097 
42572 6 18.7498 99.7625 
42571 6 19.7498 99.7658 
42570 6 20.7498 99.7691 
42569 6 21.7498 99.7724 
42568 6 22.7498 99.7757 
42577 6 18.747 100.629 
42576 6 19.747 100.632 
42575 6 20.747 100.635 
42574 6 21.747 100.638 
42573 6 22.747 100.642 
42582 6 18.7441 101.495 
42581 6 19.7441 101.498 
42580 6 20.7441 101.501 
42579 6 21.7441 101.504 
42578 6 22.7441 101.508 
42587 6 18.7413 102.361 
42586 6 19.7413 102.364 
42585 6 20.7413 102.367 
42584 6 21.7413 102.37 
42583 6 22.7413 102.374 
ITEM: TIMESTEP
200000
ITEM: NUMBER OF ATOMS
25
ITEM: BOX BOUNDS ff fm pp
-4.1000000000000000e+01 4.1000000000000000e+01
0.0000000000000000e+00 2.0000000000000000e+02
-2.5000000000000000e-01 2.5000000000000000e-01
ITEM: ATOMS id type x y 
42567 6 19.095 95.3536 
42566 6 20.095 95.3575 
42565 6 21.095 95.3614 
42564 6 22.095 95.3653 
42563 6 23.095 95.3693 
42572 6 19.0916 96.2196 
42571 6 20.0916 96.2235 
42570 6 21.0916 96.2274 
42569 6 22.0916 96.2313 
42568 6 23.0916 96.2353 
42577 6 19.0882 97.0855 
42576 6 20.0882 97.0895 
42575 6 21.0882 97.0934 
42574 6 22.0882 97.0973 
42573 6 23.0882 97.1012 
42582 6 19.0848 97.9515 
42581 6 20.0848 97.9555 
42580 6 21.0848 97.9594 
42579 6 22.0848 97.9633 
42578 6 23.0848 97.9672 
42587 6 19.0814 98.8175 
42586 6 20.0814 98.8215 
42585 6 21.0814 98.8254 
42584 6 22.0814 98.8293 
42583 6 23.0814 98.8332 
ITEM: TIMESTEP
210000
ITEM: NUMBER OF ATOMS
25
ITEM: BOX BOUNDS ff fm pp
-4.1000000000000000e+01 4.1000000000000000e+01
0.0000000000000000e+00 2.0000000000000000e+02
-2.5000000000000000e-01 2.5000000000000000e-01
ITEM: ATOMS id type x y 
42567 6 19.4692 91.785 
42566 6 20.4691 91.7759 
42565 6 21.4691 91.7668 
42564 6 22.469 91.7577 
42563 6 23.469 91.7486 
42572 6 19.477 92.651 
42571 6 20.477 92.6419 
42570 6 21.477 92.6328 
42569 6 22.4769 92.6237 
42568 6 23.4769 92.6146 
42577 6 19.4849 93.517 
42576 6 20.4849 93.5079 
42575 6 21.4849 93.4987 
42574 6 22.4848 93.4896 
42573 6 23.4848 93.4805 
42582 6 19.4928 94.3829 
42581 6 20.4928 94.3738 
42580 6 21.4927 94.3647 
42579 6 22.4927 94.3556 
42578 6 23.4927 94.3465 
42587 6 19.5007 95.2489 
42586 6 20.5007 95.2398 
42585 6 21.5006 95.2307 
42584 6 22.5006 95.2216 
42583 6 23.5005 95.2125 
ITEM: TIMESTEP
220000
ITEM: NUMBER OF ATOMS
25
ITEM: BOX BOUNDS ff fm pp
-4.1000000000000000e+01 4.1000000000000000e+01
0.0000000000000000e+00 2.0000000000000000e+02
-2.5000000000000000e-01 2.5000000000000000e-01
ITEM: ATOMS id type x y 
42567 6 19.9472 88.1084 
42566 6 20.9472 88.1077 
42565 6 21.9472 88.1071 
42564 6 22.9472 88.1064 
42563 6 23.9472 88.1057 
42572 6 19.9478 88.9744 
42571 6 20.9478 88.9737 
42570 6 21.9478 88.9731 
42569 6 22.9478 88.9724 
42568 6 23.9478 88.9717 
42577 6 19.9483 89.8404 
42576 6 20.9483 89.8397 
42575 6 21.9483 89.8391 
42574 6 22.9483 89.8384 
42573 6 23.9483 89.8377 
42582 6 19.9489 90.7064 
42581 6 20.9489 90.7057 
42580 6 21.9489 90.7051 
42579 6 22.9489 90.7044 
42578 6 23.9489 90.7037 
42587 6 19.9495 91.5724 
42586 6 20.9495 91.5717 
42585 6 21.9495 91.5711 
42584 6 22.9495 91.5704 
42583 6 23.9495 91.5697 
ITEM: TIMESTEP
230000
ITEM: NUMBER OF ATOMS
25
ITEM: BOX BOUNDS ff fm pp
-4.1000000000000000e+01 4.1000000000000000e+01
0.0000000000000000e+00 2.0000000000000000e+02
-2.5000000000000000e-01 2.5000000000000000e-01
ITEM: ATOMS id type x y 
42567 6 20.497 84.3931 
42566 6 21.4969 84.4014 
42565 6 22.4969 84.4098 
42564 6 23.4968 84.4182 
42563 6 24.4968 84.4266 
42572 6 20.4897 85.259 
42571 6 21.4897 85.2674 
42570 6 22.4896 85.2758 
42569 6 23.4896 85.2842 
42568 6 24.4896 85.2925 
42577 6 20.4824 86.125 
42576 6 21.4824 86.1334 
42575 6 22.4824 86.1417 
42574 6 23.4823 86.1501 
42573 6 24.4823 86.1585 
42582 6 20.4752 86.991 
42581 6 21.4752 86.9993 
42580 6 22.4751 87.0077 
42579 6 23.4751 87.0161 
42578 6 24.4751 87.0245 
42587 6 20.4679 87.8569 
42586 6 21.4679 87.8653 
42585 6 22.4679 87.8737 
42584 6 23.4678 87.8821 
42583 6 24.4678 87.8904 
ITEM: TIMESTEP
240000
ITEM: NUMBER OF ATOMS
25
ITEM: BOX BOUNDS ff fm pp
-4.1000000000000000e+01 4.1000000000000000e+01
0.0000000000000000e+00 2.0000000000000000e+02
-2.5000000000000000e-01 2.5000000000000000e-01
ITEM: ATOMS id type x y 
42567 6 21.0791 80.6996 
42566 6 22.0791 80.693 
42565 6 23.079 80.6864 
42564 6 24.079 80.6799 
42563 6 25.079 80.6733 
42572 6 21.0848 81.5656 
42571 6 22.0847 81.559 
42570 6 23.0847 81.5524 
42569 6 24.0847 81.5458 
42568 6 25.0847 81.5393 
42577 6 21.0905 82.4315 
42576 6 22.0904 82.425 
42575 6 23.0904 82.4184 
42574 6 24.0904 82.4118 
42573 6 25.0904 82.4053 
42582 6 21.0961 83.2975 
42581 6 22.0961 83.2909 
42580 6 23.0961 83.2844 
42579 6 24.0961 83.2778 
42578 6 25.0961 83.2712 
42587 6 21.1018 84.1635 
42586 6 22.1018 84.1569 
42585 6 23.1018 84.1504 
42584 6 24.1018 84.1438 
42583 6 25.1017 84.1372 
ITEM: TIMESTEP
250000
ITEM: NUMBER OF ATOMS
25
ITEM: BOX BOUNDS ff fm pp
-4.1000000000000000e+01 4.1000000000000000e+01
0.0000000000000000e+00 2.0000000000000000e+02
-2.5000000000000000e-01 2.5000000000000000e-01
ITEM: ATOMS id type x y 
42567 6 21.7518 76.9617 
42566 6 22.7517 76.9519 
42565 6 23.7517 76.9421 
42564 6 24.7516 76.9323 
42563 6 25.7516 76.9225 
42572 6 21.7603 77.8277 
42571 6 22.7602 77.8179 
42570 6 23.7602 77.8081 
42569 6 24.7602 77.7982 
42568 6 25.7601 77.7884 
42577 6 21.7688 78.6936 
42576 6 22.7688 78.6838 
42575 6 23.7687 78.674 
42574 6 24.7687 78.6642 
42573 6 25.7686 78.6544 
42582 6 21.7773 79.5596 
42581 6 22.7773 79.5498 
42580 6 23.7772 79.54 
42579 6 24.7772 79.5302 
42578 6 25.7771 79.5203 
42587 6 21.7858 80.4256 
42586 6 22.7858 80.4157 
42585 6 23.7857 80.4059 
42584 6 24.7857 80.3961 
42583 6 25.7856 80.3863 
ITEM: TIMESTEP
260000
ITEM: NUMBER OF ATOMS
25
ITEM: BOX BOUNDS ff fm pp
-4.1000000000000000e+01 4.1000000000000000e+01
0.0000000000000000e+00 2.0000000000000000e+02
-2.5000000000000000e-01 2.5000000000000000e-01
ITEM: ATOMS id type x y 
42567 6 22.5011 73.158 
42566 6 23.5011 73.1623 
42565 6 24.5011 73.1665 
42564 6 25.5011 73.1708 
42563 6 26.5011 73.1751 
42572 6 22.4974 74.024 
42571 6 23.4974 74.0283 
42570 6 24.4974 74.0325 
42569 6 25.4974 74.0368 
42568 6 26.4974 74.041 
42577 6 22.4937 74.89 
42576 6 23.4937 74.8943 
42575 6 24.4937 74.8985 
42574 6 25.4937 74.9028 
42573 6 26.4937 74.907 
42582 6 22.49 75.756 
42581 6 23.49 75.7603 
42580 6 24.49 75.7645 
42579 6 25.49 75.7688 
42578 6 26.49 75.773 
42587 6 22.4864 76.622 
42586 6 23.4863 76.6262 
42585 6 24.4863 76.6305 
42584 6 25.4863 76.6348 
42583 6 26.4863 76.639 
ITEM: TIMESTEP
270000
ITEM: NUMBER OF ATOMS
25
ITEM: BOX BOUNDS ff fm pp
-4.1000000000000000e+01 4.1000000000000000e+01
0.0000000000000000e+00 2.0000000000000000e+02
-2.5000000000000000e-01 2.5000000000000000e-01
ITEM: ATOMS id type x y 
42567 6 23.2754 69.353 
42566 6 24.2754 69.3605 
42565 6 25.2753 69.368 
42564 6 26.2753 69.3755 
42563 6 27.2753 69.383 
42572 6 23.2689 70.219 
42571 6 24.2689 70.2265 
42570 6 25.2689 70.234 
42569 6 26.2688 70.2415 
42568 6 27.2688 70.2489 
42577 6 23.2624 71.085 
42576 6 24.2624 71.0925 
42575 6 25.2624 71.0999 
42574 6 26.2623 71.1074 
42573 6 27.2623 71.1149 
42582 6 23.2559 71.9509 
42581 6 24.2559 71.9584 
42580 6 25.2559 71.9659 
42579 6 26.2559 71.9734 
42578 6 27.2558 71.9809 
42587 6 23.2495 72.8169 
42586 6 24.2494 72.8244 
42585 6 25.2494 72.8319 
42584 6 26.2494 72.8394 
42583 6 27.2494 72.8469 
ITEM: TIMESTEP
280000
ITEM: NUMBER OF ATOMS
25
ITEM: BOX BOUNDS ff fm pp
-4.1000000000000000e+01 4.1000000000000000e+01
0.0000000000000000e+00 2.0000000000000000e+02
-2.5000000000000000e-01 2.5000000000000000e-01
ITEM: ATOMS id type x y 
42567 6 24.0402 65.5899 
42566 6 25.0401 65.5787 
42565 6 26.04 65.5674 
42564 6 27.04 65.5562 
42563 6 28.0399 65.5449 
42571 6 25.0499 66.4446 
42572 6 24.0499 66.4559 
42569 6 27.0497 66.4221 
42570 6 26.0498 66.4334 
42568 6 28.0497 66.4109 
42577 6 24.0597 67.3218 
42576 6 25.0596 67.3106 
42575 6 26.0595 67.2993 
42574 6 27.0595 67.2881 
42573 6 28.0594 67.2768 
42582 6 24.0694 68.1878 
42581 6 25.0693 68.1765 
42580 6 26.0693 68.1653 
42579 6 27.0692 68.154 
42578 6 28.0691 68.1428 
42587 6 24.0791 69.0537 
42586 6 25.0791 69.0425 
42585 6 26.079 69.0312 
42584 6 27.079 69.02 
42583 6 28.0789 69.0087 
ITEM: TIMESTEP
290000
ITEM: NUMBER OF ATOMS
25
ITEM: BOX BOUNDS ff fm pp
-4.1000000000000000e+01 4.1000000000000000e+01
0.0000000000000000e+00 2.0000000000000000e+02
-2.5000000000000000e-01 2.5000000000000000e-01
ITEM: ATOMS id type x y 
42567 6 24.8448 61.8319 
42566 6 25.8447 61.8171 
42565 6 26.8446 61.8023 
42564 6 27.8445 61.7875 
42563 6 28.8444 61.7728 
42572 6 24.8576 62.6978 
42571 6 25.8575 62.683 
42570 6 26.8574 62.6682 
42569 6 27.8573 62.6534 
42568 6 28.8572 62.6387 
42577 6 24.8704 63.5637 
42576 6 25.8703 63.5489 
42575 6 26.8702 63.5341 
42574 6 27.8701 63.5194 
42573 6 28.87 63.5046 
42582 6 24.8832 64.4296 
42581 6 25.8831 64.4148 
42580 6 26.883 64.4 
42579 6 27.8829 64.3853 
42578 6 28.8828 64.3705 
42587 6 24.896 65.2955 
42586 6 25.8959 65.2807 
42585 6 26.8958 65.2659 
42584 6 27.8957 65.2512 
42583 6 28.8955 65.2364 
ITEM: TIMESTEP
300000
ITEM: NUMBER OF ATOMS
25
ITEM: BOX BOUNDS ff fm pp
-4.1000000000000000e+01 4.1000000000000000e+01
0.0000000000000000e+00 2.0000000000000000e+02
-2.5000000000000000e-01 2.5000000000000000e-01
ITEM: ATOMS id type x y 
42567 6 25.679 58.0862 
42566 6 26.679 58.0873 
42565 6 27.679 58.0884 
42564 6 28.679 58.0894 
42563 6 29.679 58.0905 
42572 6 25.678 58.9522 
42571 6 26.678 58.9533 
42570 6 27.678 58.9544 
42569 6 28.678 58.9554 
42568 6 29.678 58.9565 
42577 6 25.6771 59.8182 
42576 6 26.6771 59.8193 
42575 6 27.6771 59.8204 
42574 6 28.6771 59.8214 
42573 6 29.6771 59.8225 
42582 6 25.6762 60.6842 
42581 6 26.6762 60.6853 
42580 6 27.6762 60.6864 
42579 6 28.6762 60.6874 
42578 6 29.6762 60.6885 
42587 6 25.6752 61.5502 
42586 6 26.6752 61.5513 
42585 6 27.6752 61.5524 
42584 6 28.6752 61.5534 
42583 6 29.6752 61.5545 
ITEM: TIMESTEP
310000
ITEM: NUMBER OF ATOMS
25
ITEM: BOX BOUNDS ff fm pp
-4.1000000000000000e+01 4.1000000000000000e+01
0.0000000000000000e+00 2.0000000000000000e+02
-2.5000000000000000e-01 2.5000000000000000e-01
ITEM: ATOMS id type x y 
42567 6 26.4922 54.4082 
42566 6 27.4922 54.4115 
42565 6 28.4922 54.4149 
42564 6 29.4922 54.4182 
42563 6 30.4922 54.4216 
42572 6 26.4893 55.2742 
42571 6 27.4893 55.2775 
42570 6 28.4893 55.2809 
42569 6 29.4893 55.2842 
42568 6 30.4893 55.2876 
42577 6 26.4864 56.1402 
42576 6 27.4864 56.1435 
42575 6 28.4864 56.1469 
42574 6 29.4864 56.1502 
42573 6 30.4864 56.1536 
42582 6 26.4835 57.0062 
42581 6 27.4835 57.0095 
42580 6 28.4835 57.0129 
42579 6 29.4835 57.0162 
42578 6 30.4835 57.0196 
42587 6 26.4806 57.8721 
42586 6 27.4806 57.8755 
42585 6 28.4806 57.8789 
42584 6 29.4806 57.8822 
42583 6 30.4806 57.8856 
ITEM: TIMESTEP
320000
ITEM: NUMBER OF ATOMS
25
ITEM: BOX BOUNDS ff fm pp
-4.1000000000000000e+01 4.1000000000000000e+01
0.0000000000000000e+00 2.0000000000000000e+02
-2.5000000000000000e-01 2.5000000000000000e-01
ITEM: ATOMS id type x y 
42567 6 27.2831 50.8005 
42566 6 28.283 50.7925 
42565 6 29.283 50.7846 
42564 6 30.283 50.7767 
42563 6 31.283 50.7687 
42572 6 27.29 51.6665 
42571 6 28.2899 51.6585 
42570 6 29.2899 51.6506 
42569 6 30.2899 51.6426 
42568 6 31.2898 51.6347 
42573 6 31.2967 52.5007 
42577 6 27.2968 52.5324 
42576 6 28.2968 52.5245 
42575 6 29.2968 52.5166 
42574 6 30.2967 52.5086 
42582 6 27.3037 53.3984 
42581 6 28.3037 53.3905 
42580 6 29.3036 53.3825 
42579 6 30.3036 53.3746 
42578 6 31.3036 53.3666 
42587 6 27.3106 54.2644 
42586 6 28.3106 54.2564 
42585 6 29.3105 54.2485 
42584 6 30.3105 54.2406 
42583 6 31.3105 54.2326 
ITEM: TIMESTEP
330000
ITEM: NUMBER OF ATOMS
25
ITEM: BOX BOUNDS ff fm pp
-4.1000000000000000e+01 4.1000000000000000e+01
0.0000000000000000e+00 2.0000000000000000e+02
-2.5000000000000000e-01 2.5000000000000000e-01
ITEM: ATOMS id type x y 
42567 6 28.1168 47.1729 
42566 6 29.1167 47.1825 
42565 6 30.1167 47.192 
42564 6 31.1166 47.2016 
42563 6 32.1166 47.2112 
42572 6 28.1085 48.0389 
42571 6 29.1084 48.0484 
42570 6 30.1084 48.058 
42569 6 31.1084 48.0676 
42568 6 32.1083 48.0771 
42577 6 28.1002 48.9048 
42576 6 29.1002 48.9144 
42575 6 30.1001 48.924 
42574 6 31.1001 48.9335 
42573 6 32.1 48.9431 
42582 6 28.0919 49.7708 
42581 6 29.0919 49.7804 
42580 6 30.0918 49.7899 
42579 6 31.0918 49.7995 
42578 6 32.0917 49.8091 
42587 6 28.0836 50.6368 
42586 6 29.0836 50.6463 
42585 6 30.0836 50.6559 
42584 6 31.0835 50.6655 
42583 6 32.0835 50.675 
ITEM: TIMESTEP
340000
ITEM: NUMBER OF ATOMS
25
ITEM: BOX BOUNDS ff fm pp
-4.1000000000000000e+01 4.1000000000000000e+01
0.0000000000000000e+00 2.0125548865838670e+02
-2.5000000000000000e-01 2.5000000000000000e-01
ITEM: ATOMS id type x y 
42567 6 28.8961 43.6554 
42566 6 29.8961 43.6609 
42565 6 30.8961 43.6663 
42564 6 31.8961 43.6718 
42563 6 32.8961 43.6772 
42572 6 28.8914 44.5214 
42571 6 29.8914 44.5269 
42570 6 30.8914 44.5323 
42569 6 31.8914 44.5378 
42568 6 32.8914 44.5432 
42577 6 28.8867 45.3874 
42576 6 29.8867 45.3928 
42575 6 30.8867 45.3983 
42574 6 31.8867 45.4038 
42573 6 32.8866 45.4092 
42582 6 28.882 46.2534 
42581 6 29.882 46.2588 
42580 6 30.8819 46.2643 
42579 6 31.8819 46.2697 
42578 6 32.8819 46.2752 
42587 6 28.8773 47.1194 
42586 6 29.8772 47.1248 
42585 6 30.8772 47.1303 
42584 6 31.8772 47.1357 
42583 6 32.8772 47.1412 
ITEM: TIMESTEP
350000
ITEM: NUMBER OF ATOMS
25
ITEM: BOX BOUNDS ff fm pp
-4.1000000000000000e+01 4.1000000000000000e+01
0.0000000000000000e+00 2.0232753628064850e+02
-2.5000000000000000e-01 2.5000000000000000e-01
ITEM: ATOMS id type x y 
42567 6 29.6177 40.2717 
42566 6 30.6176 40.2588 
42565 6 31.6175 40.2458 
42564 6 32.6174 40.2328 
42563 6 33.6174 40.2199 
42572 6 29.6289 41.1377 
42571 6 30.6288 41.1247 
42570 6 31.6288 41.1117 
42569 6 32.6287 41.0988 
42568 6 33.6286 41.0858 
42577 6 29.6401 42.0036 
42576 6 30.6401 41.9906 
42575 6 31.64 41.9777 
42574 6 32.6399 41.9647 
42573 6 33.6398 41.9517 
42582 6 29.6514 42.8695 
42581 6 30.6513 42.8566 
42580 6 31.6512 42.8436 
42579 6 32.6511 42.8306 
42578 6 33.651 42.8177 
42587 6 29.6626 43.7355 
42586 6 30.6625 43.7225 
42585 6 31.6624 43.7095 
42584 6 32.6623 43.6966 
42583 6 33.6623 43.6836 
ITEM: TIMESTEP
360000
ITEM: NUMBER OF ATOMS
25
ITEM: BOX BOUNDS ff fm pp
-4.1000000000000000e+01 4.1000000000000000e+01
0.0000000000000000e+00 2.0259220901106596e+02
-2.5000000000000000e-01 2.5000000000000000e-01
ITEM: ATOMS id type x y 
42567 6 30.3848 36.9314 
42566 6 31.3848 36.9371 
42565 6 32.3848 36.9428 
42564 6 33.3848 36.9485 
42563 6 34.3848 36.9542 
42572 6 30.3799 37.7974 
42571 6 31.3799 37.8031 
42570 6 32.3799 37.8088 
42569 6 33.3799 37.8145 
42568 6 34.3798 37.8202 
42577 6 30.375 38.6634 
42576 6 31.375 38.6691 
42575 6 32.375 38.6748 
42574 6 33.3749 38.6805 
42573 6 34.3749 38.6861 
42582 6 30.3701 39.5294 
42581 6 31.3701 39.5351 
42580 6 32.37 39.5408 
42579 6 33.37 39.5464 
42578 6 34.37 39.5521 
42587 6 30.3651 40.3954 
42586 6 31.3651 40.4011 
42585 6 32.3651 40.4067 