ITEM: TIMESTEP
0
ITEM: NUMBER OF ATOMS
25
ITEM: BOX BOUNDS ff fm pp
-4.1000000000000000e+01 4.1000000000000000e+01
0.0000000000000000e+00 2.0000000000000000e+02
-2.5000000000000000e-01 2.5000000000000000e-01
ITEM: ATOMS id type x y 
42517 4 -2 140 
42516 4 -1 140 
42522 4 -2 140.866 
42521 4 -1 140.866 
42527 4 -2 141.732 
42526 4 -1 141.732 
42532 4 -2 142.598 
42531 4 -1 142.598 
42537 4 -2 143.464 
42536 4 -1 143.464 
42515 4 0 140 
42514 4 1 140 
42513 4 2 140 
42520 4 0 140.866 
42519 4 1 140.866 
42518 4 2 140.866 
42525 4 0 141.732 
42524 4 1 141.732 
42523 4 2 141.732 
42530 4 0 142.598 
42529 4 1 142.598 
42528 4 2 142.598 
42535 4 0 143.464 
42534 4 1 143.464 
42533 4 2 143.464 
ITEM: TIMESTEP
10000
ITEM: NUMBER OF ATOMS
25
ITEM: BOX BOUNDS ff fm pp
-4.1000000000000000e+01 4.1000000000000000e+01
0.0000000000000000e+00 2.0000000000000000e+02
-2.5000000000000000e-01 2.5000000000000000e-01
ITEM: ATOMS id type x y 
42517 4 -2 139.875 
42516 4 -1 139.875 
42522 4 -2 140.741 
42521 4 -1 140.741 
42520 4 -9.08622e-18 140.741 
42527 4 -2 141.607 
42526 4 -1 141.607 
42525 4 -1.53081e-17 141.607 
42532 4 -2 142.473 
42531 4 -1 142.473 
42530 4 -2.15299e-17 142.473 
42537 4 -2 143.339 
42536 4 -1 143.339 
42535 4 -2.77518e-17 143.339 
42515 4 -2.86436e-18 139.875 
42514 4 1 139.875 
42513 4 2 139.875 
42519 4 1 140.741 
42518 4 2 140.741 
42524 4 1 141.607 
42523 4 2 141.607 
42529 4 1 142.473 
42528 4 2 142.473 
42534 4 1 143.339 
42533 4 2 143.339 
ITEM: TIMESTEP
20000
ITEM: NUMBER OF ATOMS
25
ITEM: BOX BOUNDS ff fm pp
-4.1000000000000000e+01 4.1000000000000000e+01
0.0000000000000000e+00 2.0000000000000000e+02
-2.5000000000000000e-01 2.5000000000000000e-01
ITEM: ATOMS id type x y 
42517 4 -2 139.5 
42516 4 -1 139.5 
42515 4 -4.93869e-17 139.5 
42522 4 -2 140.366 
42521 4 -1 140.366 
42520 4 -5.53096e-17 140.366 
42527 4 -2 141.232 
42526 4 -1 141.232 
42525 4 -6.12323e-17 141.232 
42532 4 -2 142.098 
42531 4 -1 142.098 
42530 4 -6.71551e-17 142.098 
42537 4 -2 142.964 
42536 4 -1 142.964 
42535 4 -7.30778e-17 142.964 
42514 4 1 139.5 
42513 4 2 139.5 
42519 4 1 140.366 
42518 4 2 140.366 
42524 4 1 141.232 
42523 4 2 141.232 
42529 4 1 142.098 
42528 4 2 142.098 
42534 4 1 142.964 
42533 4 2 142.964 
ITEM: TIMESTEP
30000
ITEM: NUMBER OF ATOMS
25
ITEM: BOX BOUNDS ff fm pp
-4.1000000000000000e+01 4.1000000000000000e+01
0.0000000000000000e+00 2.0000000000000000e+02
-2.5000000000000000e-01 2.5000000000000000e-01
ITEM: ATOMS id type x y 
42517 4 -2 138.875 
42516 4 -1 138.875 
42515 4 -1.05084e-16 138.875 
42522 4 -2 139.741 
42521 4 -1 139.741 
42520 4 -1.21429e-16 139.741 
42527 4 -2 140.607 
42526 4 -1 140.607 
42525 4 -1.37773e-16 140.607 
42532 4 -2 141.473 
42531 4 -1 141.473 
42530 4 -1.54117e-16 141.473 
42537 4 -2 142.339 
42536 4 -1 142.339 
42535 4 -1.70461e-16 142.339 
42514 4 1 138.875 
42513 4 2 138.875 
42519 4 1 139.741 
42518 4 2 139.741 
42524 4 1 140.607 
42523 4 2 140.607 
42529 4 1 141.473 
42528 4 2 141.473 
42534 4 1 142.339 
42533 4 2 142.339 
ITEM: TIMESTEP
40000
ITEM: NUMBER OF ATOMS
25
ITEM: BOX BOUNDS ff fm pp
-4.1000000000000000e+01 4.1000000000000000e+01
0.0000000000000000e+00 2.0000000000000000e+02
-2.5000000000000000e-01 2.5000000000000000e-01
ITEM: ATOMS id type x y 
42517 4 -2 138 
42516 4 -1 138 
42515 4 -2.17354e-16 138 
42522 4 -2 138.866 
42521 4 -1 138.866 
42520 4 -2.31142e-16 138.866 
42527 4 -2 139.732 
42526 4 -1 139.732 
42525 4 -2.44929e-16 139.732 
42532 4 -2 140.598 
42531 4 -1 140.598 
42530 4 -2.58717e-16 140.598 
42537 4 -2 141.464 
42536 4 -1 141.464 
42535 4 -2.72504e-16 141.464 
42514 4 1 138 
42513 4 2 138 
42519 4 1 138.866 
42518 4 2 138.866 
42524 4 1 139.732 
42523 4 2 139.732 
42529 4 1 140.598 
42528 4 2 140.598 
42534 4 1 141.464 
42533 4 2 141.464 
ITEM: TIMESTEP
50000
ITEM: NUMBER OF ATOMS
25
ITEM: BOX BOUNDS ff fm pp
-4.1000000000000000e+01 4.1000000000000000e+01
0.0000000000000000e+00 2.0000000000000000e+02
-2.5000000000000000e-01 2.5000000000000000e-01
ITEM: ATOMS id type x y 
42517 4 -2 136.875 
42516 4 -1 136.875 
42515 4 -3.61386e-16 136.875 
42522 4 -2 137.741 
42521 4 -1 137.741 
42520 4 -3.72044e-16 137.741 
42527 4 -2 138.607 
42526 4 -1 138.607 
42525 4 -3.82702e-16 138.607 
42532 4 -2 139.473 
42531 4 -1 139.473 
42530 4 -3.9336e-16 139.473 
42537 4 -2 140.339 
42536 4 -1 140.339 
42535 4 -4.04018e-16 140.339 
42514 4 1 136.875 
42513 4 2 136.875 
42519 4 1 137.741 
42518 4 2 137.741 
42524 4 1 138.607 
42523 4 2 138.607 
42529 4 1 139.473 
42528 4 2 139.473 
42534 4 1 140.339 
42533 4 2 140.339 
ITEM: TIMESTEP
60000
ITEM: NUMBER OF ATOMS
25
ITEM: BOX BOUNDS ff fm pp
-4.1000000000000000e+01 4.1000000000000000e+01
0.0000000000000000e+00 2.0000000000000000e+02
-2.5000000000000000e-01 2.5000000000000000e-01
ITEM: ATOMS id type x y 
42517 4 -2 135.5 
42516 4 -1 135.5 
42515 4 -5.3146e-16 135.5 
42522 4 -2 136.366 
42521 4 -1 136.366 
42520 4 -5.41276e-16 136.366 
42527 4 -2 137.232 
42526 4 -1 137.232 
42525 4 -5.51091e-16 137.232 
42532 4 -2 138.098 
42531 4 -1 138.098 
42530 4 -5.60907e-16 138.098 
42537 4 -2 138.964 
42536 4 -1 138.964 
42535 4 -5.70722e-16 138.964 
42514 4 1 135.5 
42513 4 2 135.5 
42519 4 1 136.366 
42518 4 2 136.366 
42524 4 1 137.232 
42523 4 2 137.232 
42529 4 1 138.098 
42528 4 2 138.098 
42534 4 1 138.964 
42533 4 2 138.964 
ITEM: TIMESTEP
70000
ITEM: NUMBER OF ATOMS
25
ITEM: BOX BOUNDS ff fm pp
-4.1000000000000000e+01 4.1000000000000000e+01
0.0000000000000000e+00 2.0000000000000000e+02
-2.5000000000000000e-01 2.5000000000000000e-01
ITEM: ATOMS id type x y 
42517 4 -2 133.875 
42516 4 -1 133.875 
42515 4 -7.39542e-16 133.875 
42522 4 -2 134.741 
42521 4 -1 134.741 
42520 4 -7.44819e-16 134.741 
42527 4 -2 135.607 
42526 4 -1 135.607 
42525 4 -7.50096e-16 135.607 
42532 4 -2 136.473 
42531 4 -1 136.473 
42530 4 -7.55373e-16 136.473 
42537 4 -2 137.339 
42536 4 -1 137.339 
42535 4 -7.6065e-16 137.339 
42514 4 1 133.875 
42513 4 2 133.875 
42519 4 1 134.741 
42518 4 2 134.741 
42524 4 1 135.607 
42523 4 2 135.607 
42529 4 1 136.473 
42528 4 2 136.473 
42534 4 1 137.339 
42533 4 2 137.339 
ITEM: TIMESTEP
80000
ITEM: NUMBER OF ATOMS
25
ITEM: BOX BOUNDS ff fm pp
-4.1000000000000000e+01 4.1000000000000000e+01
0.0000000000000000e+00 2.0000000000000000e+02
-2.5000000000000000e-01 2.5000000000000000e-01
ITEM: ATOMS id type x y 
42517 4 -2 132 
42516 4 -1 132 
42515 4 -6.23086e-16 132 
42522 4 -2 132.866 
42521 4 -1 132.866 
42520 4 -8.01402e-16 132.866 
42527 4 -2 133.732 
42526 4 -1 133.732 
42525 4 -9.79717e-16 133.732 
42532 4 -2 134.598 
42531 4 -1 134.598 
42530 4 -1.15803e-15 134.598 
42537 4 -2 135.464 
42536 4 -1 135.464 
42535 4 -1.33635e-15 135.464 
42514 4 1 132 
42513 4 2 132 
42519 4 1 132.866 
42518 4 2 132.866 
42524 4 1 133.732 
42523 4 2 133.732 
42529 4 1 134.598 
42528 4 2 134.598 
42534 4 1 135.464 
42533 4 2 135.464 
ITEM: TIMESTEP
90000
ITEM: NUMBER OF ATOMS
25
ITEM: BOX BOUNDS ff fm pp
-4.1000000000000000e+01 4.1000000000000000e+01
0.0000000000000000e+00 2.0000000000000000e+02
-2.5000000000000000e-01 2.5000000000000000e-01
ITEM: ATOMS id type x y 
42517 4 -2 129.875 
42516 4 -1 129.875 
42515 4 -4.03131e-16 129.875 
42522 4 -2 130.741 
42521 4 -1 130.741 
42520 4 -8.21543e-16 130.741 
42527 4 -2 131.607 
42526 4 -1 131.607 
42525 4 -1.23995e-15 131.607 
42532 4 -2 132.473 
42531 4 -1 132.473 
42530 4 -1.65837e-15 132.473 
42537 4 -2 133.339 
42536 4 -1 133.339 
42535 4 -2.07678e-15 133.339 
42514 4 1 129.875 
42513 4 2 129.875 
42519 4 1 130.741 
42518 4 2 130.741 
42524 4 1 131.607 
42523 4 2 131.607 
42529 4 1 132.473 
42528 4 2 132.473 
42534 4 1 133.339 
42533 4 2 133.339 
ITEM: TIMESTEP
100000
ITEM: NUMBER OF ATOMS
25
ITEM: BOX BOUNDS ff fm pp
-4.1000000000000000e+01 4.1000000000000000e+01
0.0000000000000000e+00 2.0000000000000000e+02
-2.5000000000000000e-01 2.5000000000000000e-01
ITEM: ATOMS id type x y 
42517 4 -2 127.5 
42516 4 -1 127.5 
42515 4 -1.56692e-15 127.5 
42522 4 -2 128.366 
42521 4 -1 128.366 
42520 4 -1.54886e-15 128.366 
42527 4 -2 129.232 
42526 4 -1 129.232 
42525 4 -1.53081e-15 129.232 
42532 4 -2 130.098 
42531 4 -1 130.098 
42530 4 -1.51275e-15 130.098 
42537 4 -2 130.964 
42536 4 -1 130.964 
42535 4 -1.4947e-15 130.964 
42514 4 1 127.5 
42513 4 2 127.5 
42519 4 1 128.366 
42518 4 2 128.366 
42524 4 1 129.232 
42523 4 2 129.232 
42529 4 1 130.098 
42528 4 2 130.098 
42534 4 1 130.964 
42533 4 2 130.964 
ITEM: TIMESTEP
110000
ITEM: NUMBER OF ATOMS
25
ITEM: BOX BOUNDS ff fm pp
-4.1000000000000000e+01 4.1000000000000000e+01
0.0000000000000000e+00 2.0000000000000000e+02
-2.5000000000000000e-01 2.5000000000000000e-01
ITEM: ATOMS id type x y 
42517 4 -2 124.875 
42516 4 -1 124.875 
42515 4 -2.34073e-15 124.875 
42522 4 -2 125.741 
42521 4 -1 125.741 
42520 4 -2.0965e-15 125.741 
42527 4 -2 126.607 
42526 4 -1 126.607 
42525 4 -1.85228e-15 126.607 
42532 4 -2 127.473 
42531 4 -1 127.473 
42530 4 -1.60805e-15 127.473 
42537 4 -2 128.339 
42536 4 -1 128.339 
42535 4 -1.36383e-15 128.339 
42514 4 1 124.875 
42513 4 2 124.875 
42519 4 1 125.741 
42518 4 2 125.741 
42524 4 1 126.607 
42523 4 2 126.607 
42529 4 1 127.473 
42528 4 2 127.473 
42534 4 1 128.339 
42533 4 2 128.339 
ITEM: TIMESTEP
120000
ITEM: NUMBER OF ATOMS
25
ITEM: BOX BOUNDS ff fm pp
-4.1000000000000000e+01 4.1000000000000000e+01
0.0000000000000000e+00 2.0000000000000000e+02
-2.5000000000000000e-01 2.5000000000000000e-01
ITEM: ATOMS id type x y 
42517 4 -2 122 
42516 4 -1 122 
42515 4 -1.9823e-15 122 
42522 4 -2 122.866 
42521 4 -1 122.866 
42520 4 -2.09333e-15 122.866 
42527 4 -2 123.732 
42526 4 -1 123.732 
42525 4 -2.20436e-15 123.732 
42532 4 -2 124.598 
42531 4 -1 124.598 
42530 4 -2.3154e-15 124.598 
42537 4 -2 125.464 
42536 4 -1 125.464 
42535 4 -2.42643e-15 125.464 
42514 4 1 122 
42513 4 2 122 
42519 4 1 122.866 
42518 4 2 122.866 
42524 4 1 123.732 
42523 4 2 123.732 
42529 4 1 124.598 
42528 4 2 124.598 
42534 4 1 125.464 
42533 4 2 125.464 
ITEM: TIMESTEP
130000
ITEM: NUMBER OF ATOMS
25
ITEM: BOX BOUNDS ff fm pp
-4.1000000000000000e+01 4.1000000000000000e+01
0.0000000000000000e+00 2.0000000000000000e+02
-2.5000000000000000e-01 2.5000000000000000e-01
ITEM: ATOMS id type x y 
42536 4 -0.99877 122.384 
42517 4 -1.99693 118.919 
42516 4 -0.99693 118.92 
42522 4 -1.99739 119.785 
42521 4 -0.99739 119.786 
42527 4 -1.99785 120.651 
42526 4 -0.99785 120.652 
42532 4 -1.99831 121.517 
42531 4 -0.99831 121.518 
42537 4 -1.99877 122.383 
42515 4 0.00306976 118.92 
42514 4 1.00307 118.921 
42513 4 2.00307 118.922 
42520 4 0.00260979 119.786 
42519 4 1.00261 119.787 
42518 4 2.00261 119.788 
42525 4 0.00214982 120.652 
42524 4 1.00215 120.653 
42523 4 2.00215 120.654 
42530 4 0.00168985 121.518 
42529 4 1.00169 121.519 
42528 4 2.00169 121.52 
42535 4 0.00122988 122.384 
42534 4 1.00123 122.385 
42533 4 2.00123 122.386 
ITEM: TIMESTEP
140000
ITEM: NUMBER OF ATOMS
25
ITEM: BOX BOUNDS ff fm pp
-4.1000000000000000e+01 4.1000000000000000e+01
0.0000000000000000e+00 2.0000000000000000e+02
-2.5000000000000000e-01 2.5000000000000000e-01
ITEM: ATOMS id type x y 
42517 4 -1.97675 115.798 
42516 4 -0.976767 115.805 
42522 4 -1.98241 116.664 
42521 4 -0.982436 116.671 
42527 4 -1.98808 117.53 
42526 4 -0.988105 117.537 
42532 4 -1.99375 118.396 
42531 4 -0.993774 118.403 
42537 4 -1.99942 119.262 
42536 4 -0.999443 119.269 
42515 4 0.023212 115.811 
42514 4 1.02319 115.818 
42513 4 2.02317 115.824 
42520 4 0.0175429 116.677 
42519 4 1.01752 116.684 
42518 4 2.0175 116.69 
42525 4 0.0118738 117.543 
42524 4 1.01185 117.55 
42523 4 2.01183 117.556 
42530 4 0.00620475 118.409 
42529 4 1.00618 118.416 
42528 4 2.00616 118.422 
42535 4 0.00053567 119.275 
42534 4 1.00051 119.282 
42533 4 2.00049 119.288 
ITEM: TIMESTEP
150000
ITEM: NUMBER OF ATOMS
25
ITEM: BOX BOUNDS ff fm pp
-4.1000000000000000e+01 4.1000000000000000e+01
0.0000000000000000e+00 2.0000000000000000e+02
-2.5000000000000000e-01 2.5000000000000000e-01
ITEM: ATOMS id type x y 
42517 4 -2.01675 112.742 
42516 4 -1.01681 112.731 
42515 4 -0.0168669 112.721 
42522 4 -2.00742 113.608 
42521 4 -1.00748 113.597 
42520 4 -0.00753735 113.587 
42527 4 -1.99809 114.474 
42526 4 -0.99815 114.463 
42532 4 -1.98876 115.34 
42531 4 -0.98882 115.329 
42537 4 -1.97943 116.206 
42536 4 -0.979491 116.195 
42514 4 0.983075 112.71 
42513 4 1.98302 112.699 
42519 4 0.992405 113.576 
42518 4 1.99235 113.565 
42524 4 1.00173 114.442 
42523 4 2.00168 114.431 
42525 4 0.00179225 114.453 
42530 4 0.0111218 115.319 
42529 4 1.01106 115.308 
42528 4 2.01101 115.297 
42535 4 0.0204514 116.185 
42534 4 1.02039 116.174 
42533 4 2.02034 116.163 
ITEM: TIMESTEP
160000
ITEM: NUMBER OF ATOMS
25
ITEM: BOX BOUNDS ff fm pp
-4.1000000000000000e+01 4.1000000000000000e+01
0.0000000000000000e+00 2.0000000000000000e+02
-2.5000000000000000e-01 2.5000000000000000e-01
ITEM: ATOMS id type x y 
42517 4 -2.03601 109.82 
42516 4 -1.03608 109.808 
42515 4 -0.0361491 109.797 
42522 4 -2.02598 110.686 
42521 4 -1.02605 110.674 
42520 4 -0.026117 110.662 
42527 4 -2.01595 111.552 
42526 4 -1.01602 111.54 
42525 4 -0.0160848 111.528 
42532 4 -2.00592 112.418 
42531 4 -1.00599 112.406 
42530 4 -0.0060527 112.394 
42537 4 -1.99589 113.283 
42536 4 -0.995953 113.272 
42514 4 0.963784 109.785 
42513 4 1.96372 109.773 
42519 4 0.973816 110.651 
42518 4 1.97375 110.639 
42524 4 0.983848 111.517 
42523 4 1.98378 111.505 
42529 4 0.99388 112.383 
42528 4 1.99381 112.371 
42533 4 2.00385 113.237 
42535 4 0.00397943 113.26 
42534 4 1.00391 113.249 
ITEM: TIMESTEP
170000
ITEM: NUMBER OF ATOMS
25
ITEM: BOX BOUNDS ff fm pp
-4.1000000000000000e+01 4.1000000000000000e+01
0.0000000000000000e+00 2.0000000000000000e+02
-2.5000000000000000e-01 2.5000000000000000e-01
ITEM: ATOMS id type x y 
42517 4 -2.0009 106.973 
42516 4 -1.001 106.987 
42515 4 -0.00110525 107.002 
42522 4 -2.01329 107.839 
42521 4 -1.01339 107.853 
42520 4 -0.0134945 107.868 
42527 4 -2.02568 108.705 
42526 4 -1.02578 108.719 
42525 4 -0.0258838 108.734 
42532 4 -2.03807 109.571 
42531 4 -1.03817 109.585 
42530 4 -0.0382731 109.6 
42537 4 -2.05046 110.437 
42536 4 -1.05056 110.451 
42535 4 -0.0506624 110.465 
42514 4 0.998792 107.016 
42513 4 1.99869 107.03 
42519 4 0.986403 107.882 
42518 4 1.9863 107.896 
42524 4 0.974014 108.748 
42523 4 1.97391 108.762 
42529 4 0.961625 109.614 
42528 4 1.96152 109.628 
42534 4 0.949235 110.48 
42533 4 1.94913 110.494 
ITEM: TIMESTEP
180000
ITEM: NUMBER OF ATOMS
25
ITEM: BOX BOUNDS ff fm pp
-4.1000000000000000e+01 4.1000000000000000e+01
0.0000000000000000e+00 2.0000000000000000e+02
-2.5000000000000000e-01 2.5000000000000000e-01
ITEM: ATOMS id type x y 
42517 4 -1.99404 104.241 
42516 4 -0.994244 104.261 
42522 4 -2.01164 105.107 
42521 4 -1.01185 105.127 
42520 4 -0.0120567 105.148 
42527 4 -2.02925 105.973 
42526 4 -1.02946 105.993 
42525 4 -0.0296625 106.013 
42532 4 -2.04686 106.839 
42531 4 -1.04706 106.859 
42530 4 -0.0472684 106.879 
42537 4 -2.06446 107.704 
42536 4 -1.06467 107.725 
42535 4 -0.0648742 107.745 
42515 4 0.00554917 104.282 
42514 4 1.00534 104.302 
42513 4 2.00514 104.322 
42519 4 0.987737 105.168 
42518 4 1.98753 105.188 
42524 4 0.970131 106.034 
42523 4 1.96992 106.054 
42529 4 0.952525 106.9 
42528 4 1.95232 106.92 
42534 4 0.934919 107.765 
42533 4 1.93471 107.786 
ITEM: TIMESTEP
190000
ITEM: NUMBER OF ATOMS
25
ITEM: BOX BOUNDS ff fm pp
-4.1000000000000000e+01 4.1000000000000000e+01
0.0000000000000000e+00 2.0000000000000000e+02
-2.5000000000000000e-01 2.5000000000000000e-01
ITEM: ATOMS id type x y 
42517 4 -2.05524 101.618 
42516 4 -1.05533 101.605 
42515 4 -0.0554112 101.592 
42522 4 -2.04406 102.484 
42521 4 -1.04415 102.471 
42520 4 -0.0442308 102.458 
42527 4 -2.03288 103.35 
42526 4 -1.03297 103.337 
42525 4 -0.0330504 103.324 
42532 4 -2.0217 104.216 
42531 4 -1.02179 104.203 
42530 4 -0.0218701 104.19 
42537 4 -2.01052 105.082 
42536 4 -1.01061 105.069 
42535 4 -0.0106897 105.056 
42514 4 0.944505 101.579 
42513 4 1.94442 101.566 
42518 4 1.9556 102.432 
42519 4 0.955686 102.445 
42524 4 0.966866 103.311 
42523 4 1.96678 103.298 
42529 4 0.978047 104.177 
42528 4 1.97796 104.164 
42534 4 0.989227 105.043 
42533 4 1.98914 105.03 
ITEM: TIMESTEP
200000
ITEM: NUMBER OF ATOMS
25
ITEM: BOX BOUNDS ff fm pp
-4.1000000000000000e+01 4.1000000000000000e+01
0.0000000000000000e+00 2.0000000000000000e+02
-2.5000000000000000e-01 2.5000000000000000e-01
ITEM: ATOMS id type x y 
42517 4 -2.08597 98.9546 
42516 4 -1.08612 98.937 
42515 4 -0.0862779 98.9194 
42522 4 -2.07073 99.8204 
42521 4 -1.07088 99.8028 
42520 4 -0.0710372 99.7852 
42525 4 -0.0557966 100.651 
42527 4 -2.05549 100.686 
42526 4 -1.05564 100.669 
42532 4 -2.04025 101.552 
42531 4 -1.0404 101.535 
42530 4 -0.0405559 101.517 
42537 4 -2.02501 102.418 
42536 4 -1.02516 102.4 
42535 4 -0.0253153 102.383 
42514 4 0.913567 98.9018 
42513 4 1.91341 98.8842 
42519 4 0.928808 99.7676 
42518 4 1.92865 99.75 
42524 4 0.944049 100.633 
42523 4 1.94389 100.616 
42529 4 0.959289 101.499 
42528 4 1.95913 101.482 
42534 4 0.97453 102.365 
42533 4 1.97438 102.348 
ITEM: TIMESTEP
210000
ITEM: NUMBER OF ATOMS
25
ITEM: BOX BOUNDS ff fm pp
-4.1000000000000000e+01 4.1000000000000000e+01
0.0000000000000000e+00 2.0000000000000000e+02
-2.5000000000000000e-01 2.5000000000000000e-01
ITEM: ATOMS id type x y 
42517 4 -2.05945 96.2384 
42516 4 -1.05951 96.2496 
42515 4 -0.0595767 96.2607 
42522 4 -2.06908 97.1044 
42521 4 -1.06915 97.1155 
42520 4 -0.0692087 97.1266 
42527 4 -2.07872 97.9703 
42526 4 -1.07878 97.9815 
42525 4 -0.0788406 97.9926 
42532 4 -2.08835 98.8363 
42531 4 -1.08841 98.8474 
42530 4 -0.0884726 98.8585 
42537 4 -2.09798 99.7022 
42536 4 -1.09804 99.7134 
42535 4 -0.0981045 99.7245 
42514 4 0.940361 96.2718 
42513 4 1.9403 96.2829 
42519 4 0.930729 97.1378 
42518 4 1.93067 97.1489 
42524 4 0.921098 98.0037 
42523 4 1.92104 98.0148 
42529 4 0.911466 98.8697 
42528 4 1.9114 98.8808 
42534 4 0.901834 99.7356 
42533 4 1.90177 99.7467 
ITEM: TIMESTEP
220000
ITEM: NUMBER OF ATOMS
25
ITEM: BOX BOUNDS ff fm pp
-4.1000000000000000e+01 4.1000000000000000e+01
0.0000000000000000e+00 2.0000000000000000e+02
-2.5000000000000000e-01 2.5000000000000000e-01
ITEM: ATOMS id type x y 
42517 4 -2.09647 93.5618 
42516 4 -1.09649 93.5682 
42515 4 -0.0965131 93.5746 
42522 4 -2.10202 94.4277 
42521 4 -1.10204 94.4341 
42520 4 -0.10206 94.4405 
42527 4 -2.10757 95.2937 
42526 4 -1.10759 95.3001 
42525 4 -0.107607 95.3065 
42532 4 -2.11311 96.1597 
42531 4 -1.11313 96.1661 
42530 4 -0.113155 96.1725 
42537 4 -2.11866 97.0257 
42536 4 -1.11868 97.0321 
42535 4 -0.118702 97.0385 
42514 4 0.903466 93.581 
42513 4 1.90345 93.5874 
42519 4 0.897919 94.447 
42518 4 1.8979 94.4534 
42524 4 0.892372 95.3129 
42523 4 1.89235 95.3193 
42529 4 0.886825 96.1789 
42528 4 1.8868 96.1853 
42534 4 0.881278 97.0449 
42533 4 1.88126 97.0513 
ITEM: TIMESTEP
230000
ITEM: NUMBER OF ATOMS
25
ITEM: BOX BOUNDS ff fm pp
-4.1000000000000000e+01 4.1000000000000000e+01
0.0000000000000000e+00 2.0000000000000000e+02
-2.5000000000000000e-01 2.5000000000000000e-01
ITEM: ATOMS id type x y 
42517 4 -2.14636 90.8607 
42516 4 -1.1464 90.8518 
42515 4 -0.146438 90.8429 
42522 4 -2.13867 91.7266 
42521 4 -1.13871 91.7177 
42520 4 -0.138745 91.7089 
42527 4 -2.13097 92.5926 
42526 4 -1.13101 92.5837 
42525 4 -0.131052 92.5748 
42532 4 -2.12328 93.4586 
42531 4 -1.12332 93.4497 
42530 4 -0.123359 93.4408 
42537 4 -2.11559 94.3245 
42536 4 -1.11563 94.3156 
42535 4 -0.115665 94.3068 
42514 4 0.853523 90.834 
42513 4 1.85348 90.8251 
42519 4 0.861216 91.7 
42518 4 1.86118 91.6911 
42524 4 0.868909 92.5659 
42523 4 1.86887 92.5571 
42529 4 0.876602 93.4319 
42528 4 1.87656 93.423 
42534 4 0.884295 94.2979 
42533 4 1.88426 94.289 
ITEM: TIMESTEP
240000
ITEM: NUMBER OF ATOMS
25
ITEM: BOX BOUNDS ff fm pp
-4.1000000000000000e+01 4.1000000000000000e+01
0.0000000000000000e+00 2.0000000000000000e+02
-2.5000000000000000e-01 2.5000000000000000e-01
ITEM: ATOMS id type x y 
42517 4 -2.1586 88.0631 
42516 4 -1.1586 88.0622 
42515 4 -0.158605 88.0613 
42522 4 -2.15783 88.9291 
42521 4 -1.15783 88.9282 
42520 4 -0.15783 88.9273 
42527 4 -2.15705 89.7951 
42526 4 -1.15706 89.7942 
42525 4 -0.157055 89.7933 
42532 4 -2.15628 90.6611 
42531 4 -1.15628 90.6602 
42530 4 -0.156281 90.6593 
42537 4 -2.15551 91.5271 
42536 4 -1.15551 91.5262 
42535 4 -0.155506 91.5253 
42514 4 0.841395 88.0604 
42513 4 1.84139 88.0595 
42519 4 0.842169 88.9264 
42518 4 1.84217 88.9255 
42524 4 0.842944 89.7924 
42523 4 1.84294 89.7915 
42529 4 0.843719 90.6584 
42528 4 1.84372 90.6575 
42534 4 0.844494 91.5244 
42533 4 1.84449 91.5235 
ITEM: TIMESTEP
250000
ITEM: NUMBER OF ATOMS
25
ITEM: BOX BOUNDS ff fm pp
-4.1000000000000000e+01 4.1000000000000000e+01
0.0000000000000000e+00 2.0000000000000000e+02
-2.5000000000000000e-01 2.5000000000000000e-01
ITEM: ATOMS id type x y 
42517 4 -2.16508 85.2143 
42516 4 -1.16515 85.2262 
42515 4 -0.165221 85.2381 
42522 4 -2.17539 86.0803 
42521 4 -1.17546 86.0922 
42520 4 -0.175532 86.1041 
42527 4 -2.1857 86.9462 
42526 4 -1.18577 86.9581 
42525 4 -0.185843 86.97 
42532 4 -2.19601 87.8121 
42531 4 -1.19608 87.824 
42530 4 -0.196154 87.8359 
42537 4 -2.20632 88.6781 
42536 4 -1.20639 88.69 
42535 4 -0.206466 88.7019 
42514 4 0.834708 85.25 
42513 4 1.83464 85.2619 
42519 4 0.824397 86.116 
42518 4 1.82433 86.1279 
42524 4 0.814086 86.9819 
42523 4 1.81402 86.9938 
42529 4 0.803775 87.8479 
42528 4 1.8037 87.8598 
42534 4 0.793464 88.7138 
42533 4 1.79339 88.7257 
ITEM: TIMESTEP
260000
ITEM: NUMBER OF ATOMS
25
ITEM: BOX BOUNDS ff fm pp
-4.1000000000000000e+01 4.1000000000000000e+01
0.0000000000000000e+00 2.0000000000000000e+02
-2.5000000000000000e-01 2.5000000000000000e-01
ITEM: ATOMS id type x y 
42517 4 -2.21168 82.3255 
42516 4 -1.21168 82.3256 
42515 4 -0.211675 82.3257 
42522 4 -2.21176 83.1915 
42521 4 -1.21176 83.1916 
42520 4 -0.21176 83.1917 
42527 4 -2.21184 84.0575 
42526 4 -1.21184 84.0576 
42525 4 -0.211845 84.0577 
42532 4 -2.21193 84.9235 
42531 4 -1.21193 84.9236 
42530 4 -0.211929 84.9237 
42537 4 -2.21201 85.7895 
42536 4 -1.21201 85.7896 
42535 4 -0.212014 85.7897 
42514 4 0.788325 82.3258 
42513 4 1.78832 82.3259 
42519 4 0.78824 83.1918 
42518 4 1.78824 83.1919 
42524 4 0.788155 84.0578 
42523 4 1.78816 84.0579 
42529 4 0.788071 84.9238 
42528 4 1.78807 84.9239 
42534 4 0.787986 85.7898 
42533 4 1.78799 85.7899 
ITEM: TIMESTEP
270000
ITEM: NUMBER OF ATOMS
25
ITEM: BOX BOUNDS ff fm pp
-4.1000000000000000e+01 4.1000000000000000e+01
0.0000000000000000e+00 2.0000000000000000e+02
-2.5000000000000000e-01 2.5000000000000000e-01
ITEM: ATOMS id type x y 
42517 4 -2.25405 79.3263 
42516 4 -1.2541 79.3164 
42515 4 -0.254145 79.3065 
42522 4 -2.24551 80.1922 
42521 4 -1.24556 80.1824 
42520 4 -0.245608 80.1725 
42527 4 -2.23697 81.0582 
42526 4 -1.23702 81.0483 
42525 4 -0.23707 81.0385 
42532 4 -2.22844 81.9241 
42531 4 -1.22848 81.9143 
42530 4 -0.228532 81.9044 
42537 4 -2.2199 82.7901 
42536 4 -1.21995 82.7802 
42535 4 -0.219995 82.7704 
42514 4 0.745806 79.2967 
42513 4 1.74576 79.2868 
42519 4 0.754344 80.1626 
42518 4 1.7543 80.1528 
42524 4 0.762881 81.0286 
42523 4 1.76283 81.0187 
42529 4 0.771419 81.8946 
42528 4 1.77137 81.8847 
42534 4 0.779956 82.7605 
42533 4 1.77991 82.7507 
ITEM: TIMESTEP
280000
ITEM: NUMBER OF ATOMS
25
ITEM: BOX BOUNDS ff fm pp
-4.1000000000000000e+01 4.1000000000000000e+01
0.0000000000000000e+00 2.0000000000000000e+02
-2.5000000000000000e-01 2.5000000000000000e-01
ITEM: ATOMS id type x y 
42517 4 -2.26469 76.1831 
42516 4 -1.26469 76.184 
42515 4 -0.264691 76.1849 
42522 4 -2.26548 77.0491 
42521 4 -1.26548 77.05 
42520 4 -0.265484 77.0509 
42527 4 -2.26628 77.9151 
42526 4 -1.26628 77.916 
42525 4 -0.266278 77.9169 
42532 4 -2.26707 78.7811 
42531 4 -1.26707 78.782 
42530 4 -0.267071 78.7829 
42537 4 -2.26786 79.6471 
42536 4 -1.26786 79.648 
42535 4 -0.267865 79.6489 
42514 4 0.735309 76.1859 
42513 4 1.73531 76.1868 
42519 4 0.734515 77.0519 
42518 4 1.73452 77.0528 
42524 4 0.733722 77.9179 
42523 4 1.73372 77.9188 
42529 4 0.732928 78.7839 
42528 4 1.73293 78.7848 
42534 4 0.732135 79.6499 
42533 4 1.73213 79.6508 
ITEM: TIMESTEP
290000
ITEM: NUMBER OF ATOMS
25
ITEM: BOX BOUNDS ff fm pp
-4.1000000000000000e+01 4.1000000000000000e+01
0.0000000000000000e+00 2.0000000000000000e+02
-2.5000000000000000e-01 2.5000000000000000e-01
ITEM: ATOMS id type x y 
42517 4 -2.28847 72.9407 
42516 4 -1.28848 72.9466 
42515 4 -0.288502 72.9525 
42522 4 -2.2936 73.8066 
42521 4 -1.29362 73.8126 
42520 4 -0.293637 73.8185 
42527 4 -2.29874 74.6726 
42526 4 -1.29875 74.6786 
42525 4 -0.298772 74.6845 
42532 4 -2.30387 75.5386 
42531 4 -1.30389 75.5445 
42530 4 -0.303907 75.5505 
42537 4 -2.30901 76.4046 
42536 4 -1.30902 76.4105 
42535 4 -0.309042 76.4165 
42514 4 0.711481 72.9584 
42513 4 1.71146 72.9644 
42519 4 0.706345 73.8244 
42518 4 1.70633 73.8304 
42524 4 0.70121 74.6904 
42523 4 1.70119 74.6963 
42529 4 0.696075 75.5564 
42528 4 1.69606 75.5623 
42534 4 0.69094 76.4224 
42533 4 1.69092 76.4283 
ITEM: TIMESTEP
300000
ITEM: NUMBER OF ATOMS
25
ITEM: BOX BOUNDS ff fm pp
-4.1000000000000000e+01 4.1000000000000000e+01
0.0000000000000000e+00 2.0000000000000000e+02
-2.5000000000000000e-01 2.5000000000000000e-01
ITEM: ATOMS id type x y 
42517 4 -2.33114 69.6172 
42516 4 -1.33115 69.6152 
42515 4 -0.331149 69.6133 
42522 4 -2.32943 70.4832 
42521 4 -1.32943 70.4812 
42520 4 -0.329436 70.4793 
42527 4 -2.32772 71.3492 
42526 4 -1.32772 71.3472 
42525 4 -0.327724 71.3453 
42532 4 -2.32601 72.2152 
42531 4 -1.32601 72.2132 
42530 4 -0.326011 72.2113 
42537 4 -2.32429 73.0812 
42536 4 -1.3243 73.0792 
42535 4 -0.324298 73.0773 
42514 4 0.668849 69.6113 
42513 4 1.66885 69.6093 
42519 4 0.670562 70.4773 
42518 4 1.67056 70.4753 
42524 4 0.672274 71.3433 
42523 4 1.67227 71.3413 
42529 4 0.673987 72.2093 
42528 4 1.67399 72.2073 
42534 4 0.6757 73.0753 
42533 4 1.6757 73.0733 
ITEM: TIMESTEP
310000
ITEM: NUMBER OF ATOMS
25
ITEM: BOX BOUNDS ff fm pp
-4.1000000000000000e+01 4.1000000000000000e+01
0.0000000000000000e+00 2.0000000000000000e+02
-2.5000000000000000e-01 2.5000000000000000e-01
ITEM: ATOMS id type x y 
42515 4 -0.348618 66.1691 
42516 4 -1.34862 66.1695 
42517 4 -2.34862 66.1698 
42522 4 -2.34828 67.0358 
42521 4 -1.34828 67.0355 
42520 4 -0.348277 67.0351 
42527 4 -2.34794 67.9018 
42526 4 -1.34794 67.9015 
42525 4 -0.347935 67.9011 
42532 4 -2.34759 68.7678 
42531 4 -1.34759 68.7675 
42530 4 -0.347594 68.7671 
42537 4 -2.34725 69.6338 
42536 4 -1.34725 69.6335 
42535 4 -0.347253 69.6331 
42514 4 0.651382 66.1687 
42513 4 1.65138 66.1683 
42519 4 0.651723 67.0347 
42518 4 1.65172 67.0343 
42524 4 0.652064 67.9007 
42523 4 1.65206 67.9003 
42529 4 0.652406 68.7667 
42528 4 1.65241 68.7663 
42534 4 0.652747 69.6327 
42533 4 1.65275 69.6323 
ITEM: TIMESTEP
320000
ITEM: NUMBER OF ATOMS
25
ITEM: BOX BOUNDS ff fm pp
-4.1000000000000000e+01 4.1000000000000000e+01
0.0000000000000000e+00 2.0000000000000000e+02
-2.5000000000000000e-01 2.5000000000000000e-01
ITEM: ATOMS id type x y 
42517 4 -2.36607 62.6115 
42516 4 -1.36607 62.6131 
42515 4 -0.366074 62.6148 
42522 4 -2.3675 63.4775 
42521 4 -1.3675 63.4791 
42520 4 -0.367504 63.4808 
42527 4 -2.36893 64.3435 
42526 4 -1.36893 64.3451 
42525 4 -0.368934 64.3468 
42532 4 -2.37036 65.2095 
42531 4 -1.37036 65.2111 
42530 4 -0.370364 65.2128 
42537 4 -2.37179 66.0754 
42535 4 -0.371794 66.0788 
42536 4 -1.37179 66.0771 
42514 4 0.633925 62.6164 
42513 4 1.63392 62.6181 
42519 4 0.632495 63.4824 
42518 4 1.63249 63.4841 
42524 4 0.631065 64.3484 
42523 4 1.63106 64.3501 
42529 4 0.629635 65.2144 
42528 4 1.62963 65.2161 
42534 4 0.628205 66.0804 
42533 4 1.6282 66.0821 
ITEM: TIMESTEP
330000
ITEM: NUMBER OF ATOMS
25
ITEM: BOX BOUNDS ff fm pp
-4.1000000000000000e+01 4.1000000000000000e+01
0.0000000000000000e+00 2.0000000000000000e+02
-2.5000000000000000e-01 2.5000000000000000e-01
ITEM: ATOMS id type x y 
42517 4 -2.38948 58.9549 
42516 4 -1.38949 58.9558 
42515 4 -0.389486 58.9568 
42522 4 -2.39031 59.8209 
42521 4 -1.39031 59.8218 
42520 4 -0.390315 59.8228 
42527 4 -2.39114 60.6869 
42526 4 -1.39114 60.6878 
42525 4 -0.391145 60.6888 
42532 4 -2.39197 61.5529 
42531 4 -1.39197 61.5538 
42530 4 -0.391974 61.5548 
42537 4 -2.3928 62.4189 
42536 4 -1.3928 62.4198 
42535 4 -0.392804 62.4208 
42514 4 0.610514 58.9578 
42513 4 1.61051 58.9587 
42519 4 0.609684 59.8238 
42518 4 1.60968 59.8247 
42524 4 0.608855 60.6898 
42523 4 1.60885 60.6907 
42529 4 0.608025 61.5558 
42528 4 1.60802 61.5567 
42534 4 0.607196 62.4218 
42533 4 1.6072 62.4227 
ITEM: TIMESTEP
340000
ITEM: NUMBER OF ATOMS
25
ITEM: BOX BOUNDS ff fm pp
-4.1000000000000000e+01 4.1000000000000000e+01
0.0000000000000000e+00 2.0125548865838670e+02
-2.5000000000000000e-01 2.5000000000000000e-01
ITEM: ATOMS id type x y 
42517 4 -2.42165 55.1943 
42516 4 -1.42166 55.1906 
42515 4 -0.421664 55.1868 
42522 4 -2.41838 56.0603 
42521 4 -1.41838 56.0565 
42520 4 -0.41839 56.0528 
42527 4 -2.4151 56.9263 
42526 4 -1.41511 56.9225 
42525 4 -0.415116 56.9188 
42532 4 -2.41183 57.7923 
42531 4 -1.41183 57.7885 
42530 4 -0.411842 57.7848 
42537 4 -2.40855 58.6583 
42536 4 -1.40856 58.6545 
42535 4 -0.408568 58.6507 
42514 4 0.578329 55.183 
42513 4 1.57832 55.1792 
42519 4 0.581603 56.049 
42518 4 1.5816 56.0452 
42524 4 0.584877 56.915 
42523 4 1.58487 56.9112 
42529 4 0.588151 57.781 
42528 4 1.58814 57.7772 
42534 4 0.591425 58.647 
42533 4 1.59142 58.6432 
ITEM: TIMESTEP
350000
ITEM: NUMBER OF ATOMS
25
ITEM: BOX BOUNDS ff fm pp
-4.1000000000000000e+01 4.1000000000000000e+01
0.0000000000000000e+00 2.0232753628064850e+02
-2.5000000000000000e-01 2.5000000000000000e-01
ITEM: ATOMS id type x y 
42517 4 -2.44154 51.2874 
42516 4 -1.44154 51.2884 
42515 4 -0.441537 51.2893 
42522 4 -2.44238 52.1534 
42521 4 -1.44238 52.1544 
42520 4 -0.442381 52.1553 
42527 4 -2.44322 53.0194 
42526 4 -1.44322 53.0204 
42525 4 -0.443224 53.0213 
42532 4 -2.44407 53.8854 
42531 4 -1.44407 53.8864 
42530 4 -0.444068 53.8873 
42537 4 -2.44491 54.7514 