ITEM: TIMESTEP
0
ITEM: NUMBER OF ATOMS
25
ITEM: BOX BOUNDS ff fm pp
-4.1000000000000000e+01 4.1000000000000000e+01
0.0000000000000000e+00 2.0000000000000000e+02
-2.5000000000000000e-01 2.5000000000000000e-01
ITEM: ATOMS id type x y 
42542 5 8 140 
42541 5 9 140 
42540 5 10 140 
42539 5 11 140 
42538 5 12 140 
42547 5 8 140.866 
42546 5 9 140.866 
42545 5 10 140.866 
42544 5 11 140.866 
42543 5 12 140.866 
42552 5 8 141.732 
42551 5 9 141.732 
42550 5 10 141.732 
42549 5 11 141.732 
42548 5 12 141.732 
42557 5 8 142.598 
42556 5 9 142.598 
42555 5 10 142.598 
42554 5 11 142.598 
42553 5 12 142.598 
42562 5 8 143.464 
42561 5 9 143.464 
42560 5 10 143.464 
42559 5 11 143.464 
42558 5 12 143.464 
ITEM: TIMESTEP
10000
ITEM: NUMBER OF ATOMS
25
ITEM: BOX BOUNDS ff fm pp
-4.1000000000000000e+01 4.1000000000000000e+01
0.0000000000000000e+00 2.0000000000000000e+02
-2.5000000000000000e-01 2.5000000000000000e-01
ITEM: ATOMS id type x y 
42542 5 8 139.875 
42541 5 9 139.875 
42540 5 10 139.875 
42539 5 11 139.875 
42538 5 12 139.875 
42547 5 8 140.741 
42546 5 9 140.741 
42545 5 10 140.741 
42544 5 11 140.741 
42543 5 12 140.741 
42552 5 8 141.607 
42551 5 9 141.607 
42550 5 10 141.607 
42549 5 11 141.607 
42548 5 12 141.607 
42557 5 8 142.473 
42556 5 9 142.473 
42555 5 10 142.473 
42554 5 11 142.473 
42553 5 12 142.473 
42562 5 8 143.339 
42561 5 9 143.339 
42560 5 10 143.339 
42559 5 11 143.339 
42558 5 12 143.339 
ITEM: TIMESTEP
20000
ITEM: NUMBER OF ATOMS
25
ITEM: BOX BOUNDS ff fm pp
-4.1000000000000000e+01 4.1000000000000000e+01
0.0000000000000000e+00 2.0000000000000000e+02
-2.5000000000000000e-01 2.5000000000000000e-01
ITEM: ATOMS id type x y 
42542 5 8 139.5 
42541 5 9 139.5 
42540 5 10 139.5 
42539 5 11 139.5 
42538 5 12 139.5 
42547 5 8 140.366 
42546 5 9 140.366 
42545 5 10 140.366 
42544 5 11 140.366 
42543 5 12 140.366 
42552 5 8 141.232 
42551 5 9 141.232 
42550 5 10 141.232 
42549 5 11 141.232 
42548 5 12 141.232 
42557 5 8 142.098 
42556 5 9 142.098 
42555 5 10 142.098 
42554 5 11 142.098 
42553 5 12 142.098 
42562 5 8 142.964 
42561 5 9 142.964 
42560 5 10 142.964 
42559 5 11 142.964 
42558 5 12 142.964 
ITEM: TIMESTEP
30000
ITEM: NUMBER OF ATOMS
25
ITEM: BOX BOUNDS ff fm pp
-4.1000000000000000e+01 4.1000000000000000e+01
0.0000000000000000e+00 2.0000000000000000e+02
-2.5000000000000000e-01 2.5000000000000000e-01
ITEM: ATOMS id type x y 
42542 5 8 138.875 
42541 5 9 138.875 
42540 5 10 138.875 
42539 5 11 138.875 
42538 5 12 138.875 
42547 5 8 139.741 
42546 5 9 139.741 
42545 5 10 139.741 
42544 5 11 139.741 
42543 5 12 139.741 
42552 5 8 140.607 
42551 5 9 140.607 
42550 5 10 140.607 
42549 5 11 140.607 
42548 5 12 140.607 
42557 5 8 141.473 
42556 5 9 141.473 
42555 5 10 141.473 
42554 5 11 141.473 
42553 5 12 141.473 
42562 5 8 142.339 
42561 5 9 142.339 
42560 5 10 142.339 
42559 5 11 142.339 
42558 5 12 142.339 
ITEM: TIMESTEP
40000
ITEM: NUMBER OF ATOMS
25
ITEM: BOX BOUNDS ff fm pp
-4.1000000000000000e+01 4.1000000000000000e+01
0.0000000000000000e+00 2.0000000000000000e+02
-2.5000000000000000e-01 2.5000000000000000e-01
ITEM: ATOMS id type x y 
42542 5 8 138 
42541 5 9 138 
42540 5 10 138 
42539 5 11 138 
42538 5 12 138 
42547 5 8 138.866 
42546 5 9 138.866 
42545 5 10 138.866 
42544 5 11 138.866 
42543 5 12 138.866 
42552 5 8 139.732 
42551 5 9 139.732 
42550 5 10 139.732 
42549 5 11 139.732 
42548 5 12 139.732 
42557 5 8 140.598 
42556 5 9 140.598 
42555 5 10 140.598 
42554 5 11 140.598 
42553 5 12 140.598 
42562 5 8 141.464 
42561 5 9 141.464 
42560 5 10 141.464 
42559 5 11 141.464 
42558 5 12 141.464 
ITEM: TIMESTEP
50000
ITEM: NUMBER OF ATOMS
25
ITEM: BOX BOUNDS ff fm pp
-4.1000000000000000e+01 4.1000000000000000e+01
0.0000000000000000e+00 2.0000000000000000e+02
-2.5000000000000000e-01 2.5000000000000000e-01
ITEM: ATOMS id type x y 
42542 5 8 136.875 
42541 5 9 136.875 
42540 5 10 136.875 
42539 5 11 136.875 
42538 5 12 136.875 
42547 5 8 137.741 
42546 5 9 137.741 
42545 5 10 137.741 
42544 5 11 137.741 
42543 5 12 137.741 
42552 5 8 138.607 
42551 5 9 138.607 
42550 5 10 138.607 
42549 5 11 138.607 
42548 5 12 138.607 
42557 5 8 139.473 
42556 5 9 139.473 
42555 5 10 139.473 
42554 5 11 139.473 
42553 5 12 139.473 
42562 5 8 140.339 
42561 5 9 140.339 
42560 5 10 140.339 
42559 5 11 140.339 
42558 5 12 140.339 
ITEM: TIMESTEP
60000
ITEM: NUMBER OF ATOMS
25
ITEM: BOX BOUNDS ff fm pp
-4.1000000000000000e+01 4.1000000000000000e+01
0.0000000000000000e+00 2.0000000000000000e+02
-2.5000000000000000e-01 2.5000000000000000e-01
ITEM: ATOMS id type x y 
42542 5 8 135.5 
42541 5 9 135.5 
42540 5 10 135.5 
42539 5 11 135.5 
42538 5 12 135.5 
42547 5 8 136.366 
42546 5 9 136.366 
42545 5 10 136.366 
42544 5 11 136.366 
42543 5 12 136.366 
42552 5 8 137.232 
42551 5 9 137.232 
42550 5 10 137.232 
42549 5 11 137.232 
42548 5 12 137.232 
42557 5 8 138.098 
42556 5 9 138.098 
42555 5 10 138.098 
42554 5 11 138.098 
42553 5 12 138.098 
42562 5 8 138.964 
42561 5 9 138.964 
42560 5 10 138.964 
42559 5 11 138.964 
42558 5 12 138.964 
ITEM: TIMESTEP
70000
ITEM: NUMBER OF ATOMS
25
ITEM: BOX BOUNDS ff fm pp
-4.1000000000000000e+01 4.1000000000000000e+01
0.0000000000000000e+00 2.0000000000000000e+02
-2.5000000000000000e-01 2.5000000000000000e-01
ITEM: ATOMS id type x y 
42542 5 8 133.875 
42541 5 9 133.875 
42540 5 10 133.875 
42539 5 11 133.875 
42538 5 12 133.875 
42547 5 8 134.741 
42546 5 9 134.741 
42545 5 10 134.741 
42544 5 11 134.741 
42543 5 12 134.741 
42552 5 8 135.607 
42551 5 9 135.607 
42550 5 10 135.607 
42549 5 11 135.607 
42548 5 12 135.607 
42557 5 8 136.473 
42556 5 9 136.473 
42555 5 10 136.473 
42554 5 11 136.473 
42553 5 12 136.473 
42562 5 8 137.339 
42561 5 9 137.339 
42560 5 10 137.339 
42559 5 11 137.339 
42558 5 12 137.339 
ITEM: TIMESTEP
80000
ITEM: NUMBER OF ATOMS
25
ITEM: BOX BOUNDS ff fm pp
-4.1000000000000000e+01 4.1000000000000000e+01
0.0000000000000000e+00 2.0000000000000000e+02
-2.5000000000000000e-01 2.5000000000000000e-01
ITEM: ATOMS id type x y 
42542 5 8 132 
42541 5 9 132 
42540 5 10 132 
42539 5 11 132 
42538 5 12 132 
42547 5 8 132.866 
42546 5 9 132.866 
42545 5 10 132.866 
42544 5 11 132.866 
42543 5 12 132.866 
42552 5 8 133.732 
42551 5 9 133.732 
42550 5 10 133.732 
42549 5 11 133.732 
42548 5 12 133.732 
42557 5 8 134.598 
42556 5 9 134.598 
42555 5 10 134.598 
42554 5 11 134.598 
42553 5 12 134.598 
42562 5 8 135.464 
42561 5 9 135.464 
42560 5 10 135.464 
42559 5 11 135.464 
42558 5 12 135.464 
ITEM: TIMESTEP
90000
ITEM: NUMBER OF ATOMS
25
ITEM: BOX BOUNDS ff fm pp
-4.1000000000000000e+01 4.1000000000000000e+01
0.0000000000000000e+00 2.0000000000000000e+02
-2.5000000000000000e-01 2.5000000000000000e-01
ITEM: ATOMS id type x y 
42542 5 8 129.875 
42541 5 9 129.875 
42540 5 10 129.875 
42539 5 11 129.875 
42538 5 12 129.875 
42547 5 8 130.741 
42546 5 9 130.741 
42545 5 10 130.741 
42544 5 11 130.741 
42543 5 12 130.741 
42552 5 8 131.607 
42551 5 9 131.607 
42550 5 10 131.607 
42549 5 11 131.607 
42548 5 12 131.607 
42557 5 8 132.473 
42556 5 9 132.473 
42555 5 10 132.473 
42554 5 11 132.473 
42553 5 12 132.473 
42562 5 8 133.339 
42561 5 9 133.339 
42560 5 10 133.339 
42559 5 11 133.339 
42558 5 12 133.339 
ITEM: TIMESTEP
100000
ITEM: NUMBER OF ATOMS
25
ITEM: BOX BOUNDS ff fm pp
-4.1000000000000000e+01 4.1000000000000000e+01
0.0000000000000000e+00 2.0000000000000000e+02
-2.5000000000000000e-01 2.5000000000000000e-01
ITEM: ATOMS id type x y 
42542 5 8 127.5 
42541 5 9 127.5 
42540 5 10 127.5 
42539 5 11 127.5 
42538 5 12 127.5 
42547 5 8 128.366 
42546 5 9 128.366 
42545 5 10 128.366 
42544 5 11 128.366 
42543 5 12 128.366 
42552 5 8 129.232 
42551 5 9 129.232 
42550 5 10 129.232 
42549 5 11 129.232 
42548 5 12 129.232 
42557 5 8 130.098 
42556 5 9 130.098 
42555 5 10 130.098 
42554 5 11 130.098 
42553 5 12 130.098 
42562 5 8 130.964 
42561 5 9 130.964 
42560 5 10 130.964 
42559 5 11 130.964 
42558 5 12 130.964 
ITEM: TIMESTEP
110000
ITEM: NUMBER OF ATOMS
25
ITEM: BOX BOUNDS ff fm pp
-4.1000000000000000e+01 4.1000000000000000e+01
0.0000000000000000e+00 2.0000000000000000e+02
-2.5000000000000000e-01 2.5000000000000000e-01
ITEM: ATOMS id type x y 
42542 5 8 124.875 
42541 5 9 124.875 
42540 5 10 124.875 
42539 5 11 124.875 
42538 5 12 124.875 
42547 5 8 125.741 
42546 5 9 125.741 
42545 5 10 125.741 
42544 5 11 125.741 
42543 5 12 125.741 
42552 5 8 126.607 
42551 5 9 126.607 
42550 5 10 126.607 
42549 5 11 126.607 
42548 5 12 126.607 
42557 5 8 127.473 
42556 5 9 127.473 
42555 5 10 127.473 
42554 5 11 127.473 
42553 5 12 127.473 
42562 5 8 128.339 
42561 5 9 128.339 
42560 5 10 128.339 
42559 5 11 128.339 
42558 5 12 128.339 
ITEM: TIMESTEP
120000
ITEM: NUMBER OF ATOMS
25
ITEM: BOX BOUNDS ff fm pp
-4.1000000000000000e+01 4.1000000000000000e+01
0.0000000000000000e+00 2.0000000000000000e+02
-2.5000000000000000e-01 2.5000000000000000e-01
ITEM: ATOMS id type x y 
42542 5 8 122 
42541 5 9 122 
42540 5 10 122 
42539 5 11 122 
42538 5 12 122 
42547 5 8 122.866 
42546 5 9 122.866 
42545 5 10 122.866 
42544 5 11 122.866 
42543 5 12 122.866 
42552 5 8 123.732 
42551 5 9 123.732 
42550 5 10 123.732 
42549 5 11 123.732 
42548 5 12 123.732 
42557 5 8 124.598 
42556 5 9 124.598 
42555 5 10 124.598 
42554 5 11 124.598 
42553 5 12 124.598 
42562 5 8 125.464 
42561 5 9 125.464 
42560 5 10 125.464 
42559 5 11 125.464 
42558 5 12 125.464 
ITEM: TIMESTEP
130000
ITEM: NUMBER OF ATOMS
25
ITEM: BOX BOUNDS ff fm pp
-4.1000000000000000e+01 4.1000000000000000e+01
0.0000000000000000e+00 2.0000000000000000e+02
-2.5000000000000000e-01 2.5000000000000000e-01
ITEM: ATOMS id type x y 
42542 5 7.99978 118.901 
42541 5 8.99978 118.901 
42540 5 9.99978 118.901 
42539 5 10.9998 118.902 
42538 5 11.9998 118.902 
42547 5 7.99943 119.767 
42546 5 8.99943 119.767 
42545 5 9.99943 119.767 
42544 5 10.9994 119.768 
42543 5 11.9994 119.768 
42552 5 7.99908 120.633 
42551 5 8.99908 120.633 
42550 5 9.99908 120.633 
42549 5 10.9991 120.634 
42548 5 11.9991 120.634 
42557 5 7.99873 121.499 
42556 5 8.99873 121.499 
42555 5 9.99873 121.499 
42554 5 10.9987 121.5 
42553 5 11.9987 121.5 
42562 5 7.99838 122.365 
42561 5 8.99838 122.365 
42560 5 9.99838 122.365 
42559 5 10.9984 122.366 
42558 5 11.9984 122.366 
ITEM: TIMESTEP
140000
ITEM: NUMBER OF ATOMS
25
ITEM: BOX BOUNDS ff fm pp
-4.1000000000000000e+01 4.1000000000000000e+01
0.0000000000000000e+00 2.0000000000000000e+02
-2.5000000000000000e-01 2.5000000000000000e-01
ITEM: ATOMS id type x y 
42542 5 7.98916 115.77 
42541 5 8.98913 115.762 
42540 5 9.9891 115.754 
42539 5 10.9891 115.746 
42538 5 11.989 115.738 
42547 5 7.99599 116.636 
42546 5 8.99596 116.628 
42545 5 9.99593 116.62 
42544 5 10.9959 116.612 
42543 5 11.9959 116.604 
42552 5 8.00283 117.502 
42551 5 9.0028 117.494 
42550 5 10.0028 117.486 
42549 5 11.0027 117.478 
42548 5 12.0027 117.47 
42557 5 8.00967 118.368 
42556 5 9.00964 118.36 
42555 5 10.0096 118.352 
42554 5 11.0096 118.344 
42553 5 12.0095 118.336 
42560 5 10.0164 119.218 
42559 5 11.0164 119.21 
42558 5 12.0164 119.202 
42562 5 8.01651 119.233 
42561 5 9.01648 119.226 
ITEM: TIMESTEP
150000
ITEM: NUMBER OF ATOMS
25
ITEM: BOX BOUNDS ff fm pp
-4.1000000000000000e+01 4.1000000000000000e+01
0.0000000000000000e+00 2.0000000000000000e+02
-2.5000000000000000e-01 2.5000000000000000e-01
ITEM: ATOMS id type x y 
42542 5 8.03426 112.599 
42541 5 9.03426 112.6 
42540 5 10.0343 112.601 
42539 5 11.0343 112.602 
42538 5 12.0343 112.603 
42547 5 8.03345 113.465 
42546 5 9.03345 113.466 
42545 5 10.0334 113.467 
42544 5 11.0334 113.468 
42543 5 12.0334 113.469 
42552 5 8.03264 114.331 
42551 5 9.03264 114.332 
42550 5 10.0326 114.333 
42549 5 11.0326 114.334 
42548 5 12.0326 114.335 
42557 5 8.03183 115.197 
42556 5 9.03183 115.198 
42555 5 10.0318 115.199 
42554 5 11.0318 115.2 
42553 5 12.0318 115.201 
42562 5 8.03102 116.063 
42561 5 9.03102 116.064 
42560 5 10.031 116.065 
42559 5 11.031 116.066 
42558 5 12.031 116.067 
ITEM: TIMESTEP
160000
ITEM: NUMBER OF ATOMS
25
ITEM: BOX BOUNDS ff fm pp
-4.1000000000000000e+01 4.1000000000000000e+01
0.0000000000000000e+00 2.0000000000000000e+02
-2.5000000000000000e-01 2.5000000000000000e-01
ITEM: ATOMS id type x y 
42542 5 8.09435 109.534 
42541 5 9.09435 109.537 
42540 5 10.0943 109.539 
42539 5 11.0943 109.542 
42538 5 12.0943 109.545 
42547 5 8.09205 110.4 
42546 5 9.09204 110.403 
42545 5 10.092 110.405 
42544 5 11.092 110.408 
42543 5 12.092 110.411 
42552 5 8.08975 111.266 
42551 5 9.08974 111.269 
42550 5 10.0897 111.271 
42549 5 11.0897 111.274 
42548 5 12.0897 111.277 
42557 5 8.08744 112.132 
42556 5 9.08744 112.135 
42555 5 10.0874 112.137 
42554 5 11.0874 112.14 
42553 5 12.0874 112.143 
42562 5 8.08514 112.998 
42561 5 9.08514 113.001 
42560 5 10.0851 113.003 
42559 5 11.0851 113.006 
42558 5 12.0851 113.009 
ITEM: TIMESTEP
170000
ITEM: NUMBER OF ATOMS
25
ITEM: BOX BOUNDS ff fm pp
-4.1000000000000000e+01 4.1000000000000000e+01
0.0000000000000000e+00 2.0000000000000000e+02
-2.5000000000000000e-01 2.5000000000000000e-01
ITEM: ATOMS id type x y 
42542 5 8.15582 106.565 
42541 5 9.15579 106.557 
42540 5 10.1558 106.549 
42539 5 11.1557 106.541 
42538 5 12.1557 106.533 
42547 5 8.16275 107.431 
42546 5 9.16272 107.423 
42545 5 10.1627 107.415 
42544 5 11.1627 107.407 
42543 5 12.1626 107.399 
42552 5 8.16968 108.297 
42551 5 9.16965 108.289 
42550 5 10.1696 108.281 
42549 5 11.1696 108.273 
42548 5 12.1696 108.265 
42557 5 8.17661 109.162 
42556 5 9.17658 109.154 
42555 5 10.1765 109.146 
42554 5 11.1765 109.138 
42553 5 12.1765 109.13 
42562 5 8.18354 110.028 
42561 5 9.1835 110.02 
42560 5 10.1835 110.012 
42559 5 11.1834 110.004 
42558 5 12.1834 109.996 
ITEM: TIMESTEP
180000
ITEM: NUMBER OF ATOMS
25
ITEM: BOX BOUNDS ff fm pp
-4.1000000000000000e+01 4.1000000000000000e+01
0.0000000000000000e+00 2.0000000000000000e+02
-2.5000000000000000e-01 2.5000000000000000e-01
ITEM: ATOMS id type x y 
42539 5 11.2629 103.614 
42538 5 12.2629 103.608 
42542 5 8.26293 103.632 
42541 5 9.26291 103.626 
42540 5 10.2629 103.62 
42547 5 8.26818 104.498 
42546 5 9.26816 104.492 
42545 5 10.2681 104.486 
42544 5 11.2681 104.48 
42543 5 12.2681 104.474 
42552 5 8.27342 105.364 
42551 5 9.2734 105.358 
42550 5 10.2734 105.352 
42549 5 11.2734 105.346 
42548 5 12.2733 105.34 
42557 5 8.27867 106.23 
42556 5 9.27865 106.224 
42555 5 10.2786 106.218 
42554 5 11.2786 106.212 
42553 5 12.2786 106.206 
42562 5 8.28391 107.096 
42561 5 9.28389 107.09 
42560 5 10.2839 107.084 
42559 5 11.2839 107.078 
42558 5 12.2838 107.072 
ITEM: TIMESTEP
190000
ITEM: NUMBER OF ATOMS
25
ITEM: BOX BOUNDS ff fm pp
-4.1000000000000000e+01 4.1000000000000000e+01
0.0000000000000000e+00 2.0000000000000000e+02
-2.5000000000000000e-01 2.5000000000000000e-01
ITEM: ATOMS id type x y 
42542 5 8.4024 100.735 
42541 5 9.40239 100.739 
42540 5 10.4024 100.743 
42539 5 11.4024 100.746 
42538 5 12.4024 100.75 
42547 5 8.39915 101.601 
42546 5 9.39914 101.605 
42545 5 10.3991 101.609 
42544 5 11.3991 101.612 
42543 5 12.3991 101.616 
42552 5 8.3959 102.467 
42551 5 9.3959 102.471 
42550 5 10.3959 102.475 
42549 5 11.3959 102.478 
42548 5 12.3959 102.482 
42557 5 8.39265 103.333 
42556 5 9.39265 103.337 
42555 5 10.3926 103.341 
42554 5 11.3926 103.344 
42553 5 12.3926 103.348 
42562 5 8.38941 104.199 
42561 5 9.3894 104.203 
42560 5 10.3894 104.207 
42559 5 11.3894 104.21 
42558 5 12.3894 104.214 
ITEM: TIMESTEP
200000
ITEM: NUMBER OF ATOMS
25
ITEM: BOX BOUNDS ff fm pp
-4.1000000000000000e+01 4.1000000000000000e+01
0.0000000000000000e+00 2.0000000000000000e+02
-2.5000000000000000e-01 2.5000000000000000e-01
ITEM: ATOMS id type x y 
42542 5 8.55289 97.8826 
42541 5 9.55289 97.8856 
42540 5 10.5529 97.8887 
42539 5 11.5529 97.8917 
42538 5 12.5529 97.8948 
42547 5 8.55025 98.7486 
42546 5 9.55025 98.7516 
42545 5 10.5502 98.7547 
42544 5 11.5502 98.7577 
42543 5 12.5502 98.7608 
42552 5 8.54762 99.6146 
42551 5 9.54761 99.6176 
42550 5 10.5476 99.6207 
42549 5 11.5476 99.6237 
42548 5 12.5476 99.6268 
42557 5 8.54498 100.481 
42556 5 9.54498 100.484 
42555 5 10.545 100.487 
42554 5 11.545 100.49 
42553 5 12.545 100.493 
42562 5 8.54235 101.347 
42561 5 9.54234 101.35 
42560 5 10.5423 101.353 
42559 5 11.5423 101.356 
42558 5 12.5423 101.359 
ITEM: TIMESTEP
210000
ITEM: NUMBER OF ATOMS
25
ITEM: BOX BOUNDS ff fm pp
-4.1000000000000000e+01 4.1000000000000000e+01
0.0000000000000000e+00 2.0000000000000000e+02
-2.5000000000000000e-01 2.5000000000000000e-01
ITEM: ATOMS id type x y 
42542 5 8.73056 95.0366 
42541 5 9.73055 95.032 
42540 5 10.7305 95.0273 
42539 5 11.7305 95.0227 
42538 5 12.7305 95.018 
42547 5 8.73458 95.9026 
42546 5 9.73457 95.898 
42545 5 10.7346 95.8933 
42544 5 11.7346 95.8887 
42543 5 12.7345 95.884 
42552 5 8.73861 96.7686 
42551 5 9.7386 96.764 
42550 5 10.7386 96.7593 
42549 5 11.7386 96.7547 
42548 5 12.7386 96.75 
42553 5 12.7426 97.616 
42557 5 8.74264 97.6346 
42556 5 9.74263 97.6299 
42555 5 10.7426 97.6253 
42554 5 11.7426 97.6206 
42562 5 8.74666 98.5006 
42561 5 9.74665 98.4959 
42560 5 10.7466 98.4913 
42559 5 11.7466 98.4866 
42558 5 12.7466 98.482 
ITEM: TIMESTEP
220000
ITEM: NUMBER OF ATOMS
25
ITEM: BOX BOUNDS ff fm pp
-4.1000000000000000e+01 4.1000000000000000e+01
0.0000000000000000e+00 2.0000000000000000e+02
-2.5000000000000000e-01 2.5000000000000000e-01
ITEM: ATOMS id type x y 
42542 5 8.9661 92.1402 
42541 5 9.9661 92.1397 
42540 5 10.9661 92.1392 
42539 5 11.9661 92.1388 
42538 5 12.9661 92.1383 
42547 5 8.96653 93.0062 
42546 5 9.96653 93.0057 
42545 5 10.9665 93.0052 
42544 5 11.9665 93.0048 
42543 5 12.9665 93.0043 
42552 5 8.96695 93.8722 
42551 5 9.96695 93.8717 
42550 5 10.9669 93.8712 
42549 5 11.9669 93.8708 
42548 5 12.9669 93.8703 
42557 5 8.96737 94.7382 
42556 5 9.96737 94.7377 
42555 5 10.9674 94.7372 
42554 5 11.9674 94.7368 
42553 5 12.9674 94.7363 
42562 5 8.96779 95.6042 
42561 5 9.96779 95.6037 
42560 5 10.9678 95.6032 
42559 5 11.9678 95.6028 
42558 5 12.9678 95.6023 
ITEM: TIMESTEP
230000
ITEM: NUMBER OF ATOMS
25
ITEM: BOX BOUNDS ff fm pp
-4.1000000000000000e+01 4.1000000000000000e+01
0.0000000000000000e+00 2.0000000000000000e+02
-2.5000000000000000e-01 2.5000000000000000e-01
ITEM: ATOMS id type x y 
42542 5 9.23836 89.1838 
42541 5 10.2383 89.1893 
42540 5 11.2383 89.1949 
42539 5 12.2383 89.2004 
42538 5 13.2383 89.2059 
42547 5 9.23358 90.0498 
42546 5 10.2336 90.0553 
42545 5 11.2336 90.0608 
42544 5 12.2335 90.0664 
42543 5 13.2335 90.0719 
42552 5 9.22881 90.9158 
42551 5 10.2288 90.9213 
42550 5 11.2288 90.9268 
42549 5 12.2288 90.9323 
42548 5 13.2288 90.9378 
42557 5 9.22404 91.7818 
42556 5 10.224 91.7873 
42555 5 11.224 91.7928 
42554 5 12.224 91.7983 
42553 5 13.224 91.8038 
42562 5 9.21927 92.6478 
42561 5 10.2193 92.6533 
42560 5 11.2192 92.6588 
42559 5 12.2192 92.6643 
42558 5 13.2192 92.6698 
ITEM: TIMESTEP
240000
ITEM: NUMBER OF ATOMS
25
ITEM: BOX BOUNDS ff fm pp
-4.1000000000000000e+01 4.1000000000000000e+01
0.0000000000000000e+00 2.0000000000000000e+02
-2.5000000000000000e-01 2.5000000000000000e-01
ITEM: ATOMS id type x y 
42542 5 9.52394 86.1981 
42541 5 10.5239 86.1981 
42540 5 11.5239 86.1981 
42539 5 12.5239 86.198 
42538 5 13.5239 86.198 
42547 5 9.52396 87.0641 
42546 5 10.524 87.0641 
42545 5 11.524 87.0641 
42544 5 12.524 87.064 
42543 5 13.524 87.064 
42552 5 9.52398 87.9301 
42551 5 10.524 87.9301 
42550 5 11.524 87.9301 
42549 5 12.524 87.93 
42548 5 13.524 87.93 
42557 5 9.52401 88.7961 
42556 5 10.524 88.7961 
42555 5 11.524 88.7961 
42554 5 12.524 88.796 
42553 5 13.524 88.796 
42562 5 9.52403 89.6621 
42561 5 10.524 89.6621 
42560 5 11.524 89.6621 
42559 5 12.524 89.662 
42558 5 13.524 89.662 
ITEM: TIMESTEP
250000
ITEM: NUMBER OF ATOMS
25
ITEM: BOX BOUNDS ff fm pp
-4.1000000000000000e+01 4.1000000000000000e+01
0.0000000000000000e+00 2.0000000000000000e+02
-2.5000000000000000e-01 2.5000000000000000e-01
ITEM: ATOMS id type x y 
42542 5 9.82994 83.1465 
42541 5 10.8299 83.1371 
42540 5 11.8299 83.1277 
42539 5 12.8298 83.1183 
42538 5 13.8298 83.1089 
42547 5 9.83808 84.0124 
42546 5 10.838 84.003 
42545 5 11.838 83.9936 
42544 5 12.8379 83.9842 
42543 5 13.8379 83.9748 
42552 5 9.84622 84.8784 
42551 5 10.8462 84.869 
42550 5 11.8461 84.8596 
42549 5 12.8461 84.8502 
42548 5 13.846 84.8408 
42557 5 9.85435 85.7443 
42556 5 10.8543 85.7349 
42555 5 11.8543 85.7256 
42554 5 12.8542 85.7162 
42553 5 13.8542 85.7068 
42562 5 9.86249 86.6103 
42561 5 10.8624 86.6009 
42560 5 11.8624 86.5915 
42559 5 12.8624 86.5821 
42558 5 13.8623 86.5727 
ITEM: TIMESTEP
260000
ITEM: NUMBER OF ATOMS
25
ITEM: BOX BOUNDS ff fm pp
-4.1000000000000000e+01 4.1000000000000000e+01
0.0000000000000000e+00 2.0000000000000000e+02
-2.5000000000000000e-01 2.5000000000000000e-01
ITEM: ATOMS id type x y 
42542 5 10.1864 79.9822 
42541 5 11.1863 79.9752 
42540 5 12.1863 79.9683 
42539 5 13.1863 79.9613 
42538 5 14.1863 79.9543 
42547 5 10.1924 80.8482 
42546 5 11.1924 80.8412 
42545 5 12.1923 80.8342 
42544 5 13.1923 80.8273 
42543 5 14.1923 80.8203 
42552 5 10.1984 81.7142 
42551 5 11.1984 81.7072 
42550 5 12.1984 81.7002 
42549 5 13.1984 81.6932 
42548 5 14.1983 81.6863 
42557 5 10.2045 82.5801 
42556 5 11.2045 82.5732 
42555 5 12.2044 82.5662 
42554 5 13.2044 82.5592 
42553 5 14.2044 82.5522 
42562 5 10.2105 83.4461 
42561 5 11.2105 83.4391 
42560 5 12.2105 83.4322 
42559 5 13.2104 83.4252 
42558 5 14.2104 83.4182 
ITEM: TIMESTEP
270000
ITEM: NUMBER OF ATOMS
25
ITEM: BOX BOUNDS ff fm pp
-4.1000000000000000e+01 4.1000000000000000e+01
0.0000000000000000e+00 2.0000000000000000e+02
-2.5000000000000000e-01 2.5000000000000000e-01
ITEM: ATOMS id type x y 
42542 5 10.5728 76.7033 
42541 5 11.5728 76.7021 
42540 5 12.5728 76.701 
42539 5 13.5728 76.6999 
42538 5 14.5728 76.6987 
42547 5 10.5738 77.5693 
42546 5 11.5738 77.5681 
42545 5 12.5738 77.567 
42544 5 13.5738 77.5659 
42543 5 14.5738 77.5647 
42552 5 10.5748 78.4353 
42551 5 11.5748 78.4341 
42550 5 12.5748 78.433 
42549 5 13.5748 78.4319 
42548 5 14.5748 78.4307 
42557 5 10.5758 79.3013 
42556 5 11.5758 79.3001 
42555 5 12.5758 79.299 
42554 5 13.5758 79.2979 
42553 5 14.5758 79.2967 
42562 5 10.5767 80.1673 
42561 5 11.5767 80.1661 
42560 5 12.5767 80.165 
42559 5 13.5767 80.1639 
42558 5 14.5767 80.1627 
ITEM: TIMESTEP
280000
ITEM: NUMBER OF ATOMS
25
ITEM: BOX BOUNDS ff fm pp
-4.1000000000000000e+01 4.1000000000000000e+01
0.0000000000000000e+00 2.0000000000000000e+02
-2.5000000000000000e-01 2.5000000000000000e-01
ITEM: ATOMS id type x y 
42542 5 10.9907 73.3364 
42541 5 11.9907 73.336 
42540 5 12.9907 73.3355 
42539 5 13.9907 73.3351 
42538 5 14.9907 73.3347 
42547 5 10.991 74.2024 
42546 5 11.991 74.202 
42545 5 12.991 74.2015 
42544 5 13.991 74.2011 
42543 5 14.991 74.2007 
42552 5 10.9914 75.0684 
42551 5 11.9914 75.068 
42550 5 12.9914 75.0675 
42549 5 13.9914 75.0671 
42548 5 14.9914 75.0667 
42557 5 10.9917 75.9344 
42556 5 11.9917 75.934 
42555 5 12.9917 75.9335 
42554 5 13.9917 75.9331 
42553 5 14.9917 75.9327 
42562 5 10.9921 76.8004 
42561 5 11.9921 76.8 
42560 5 12.9921 76.7995 
42559 5 13.9921 76.7991 
42558 5 14.9921 76.7987 
ITEM: TIMESTEP
290000
ITEM: NUMBER OF ATOMS
25
ITEM: BOX BOUNDS ff fm pp
-4.1000000000000000e+01 4.1000000000000000e+01
0.0000000000000000e+00 2.0000000000000000e+02
-2.5000000000000000e-01 2.5000000000000000e-01
ITEM: ATOMS id type x y 
42542 5 11.4323 69.862 
42541 5 12.4323 69.8586 
42540 5 13.4323 69.8552 
42539 5 14.4323 69.8518 
42538 5 15.4323 69.8485 
42547 5 11.4352 70.728 
42546 5 12.4352 70.7246 
42545 5 13.4352 70.7212 
42544 5 14.4352 70.7178 
42543 5 15.4352 70.7145 
42552 5 11.4381 71.594 
42551 5 12.4381 71.5906 
42550 5 13.4381 71.5872 
42549 5 14.4381 71.5838 
42548 5 15.4381 71.5805 
42557 5 11.4411 72.46 
42556 5 12.4411 72.4566 
42555 5 13.4411 72.4532 
42554 5 14.4411 72.4498 
42553 5 15.441 72.4465 
42562 5 11.444 73.3259 
42561 5 12.444 73.3226 
42560 5 13.444 73.3192 
42559 5 14.444 73.3158 
42558 5 15.444 73.3124 
ITEM: TIMESTEP
300000
ITEM: NUMBER OF ATOMS
25
ITEM: BOX BOUNDS ff fm pp
-4.1000000000000000e+01 4.1000000000000000e+01
0.0000000000000000e+00 2.0000000000000000e+02
-2.5000000000000000e-01 2.5000000000000000e-01
ITEM: ATOMS id type x y 
42542 5 11.9054 66.2677 
42541 5 12.9054 66.2637 
42540 5 13.9054 66.2597 
42539 5 14.9054 66.2557 
42538 5 15.9054 66.2517 
42547 5 11.9089 67.1337 
42546 5 12.9089 67.1297 
42545 5 13.9088 67.1257 
42544 5 14.9088 67.1217 
42543 5 15.9088 67.1177 
42552 5 11.9123 67.9997 
42551 5 12.9123 67.9957 
42550 5 13.9123 67.9917 
42549 5 14.9123 67.9877 
42548 5 15.9123 67.9837 
42557 5 11.9158 68.8657 
42556 5 12.9158 68.8617 
42555 5 13.9157 68.8577 
42554 5 14.9157 68.8537 
42553 5 15.9157 68.8497 
42562 5 11.9192 69.7316 
42561 5 12.9192 69.7277 
42560 5 13.9192 69.7237 
42559 5 14.9192 69.7197 
42558 5 15.9192 69.7157 
ITEM: TIMESTEP
310000
ITEM: NUMBER OF ATOMS
25
ITEM: BOX BOUNDS ff fm pp
-4.1000000000000000e+01 4.1000000000000000e+01
0.0000000000000000e+00 2.0000000000000000e+02
-2.5000000000000000e-01 2.5000000000000000e-01
ITEM: ATOMS id type x y 
42542 5 12.4089 62.5556 
42541 5 13.4089 62.5545 
42540 5 14.4089 62.5534 
42539 5 15.4089 62.5523 
42538 5 16.4089 62.5512 
42547 5 12.4098 63.4216 
42546 5 13.4098 63.4205 
42545 5 14.4098 63.4194 
42544 5 15.4098 63.4183 
42543 5 16.4098 63.4172 
42552 5 12.4107 64.2876 
42551 5 13.4107 64.2865 
42550 5 14.4107 64.2854 
42549 5 15.4107 64.2843 
42548 5 16.4107 64.2832 
42557 5 12.4117 65.1536 
42556 5 13.4117 65.1525 
42555 5 14.4117 65.1514 
42554 5 15.4117 65.1503 
42553 5 16.4117 65.1492 
42562 5 12.4126 66.0196 
42561 5 13.4126 66.0185 
42560 5 14.4126 66.0174 
42559 5 15.4126 66.0163 
42558 5 16.4126 66.0152 
ITEM: TIMESTEP
320000
ITEM: NUMBER OF ATOMS
25
ITEM: BOX BOUNDS ff fm pp
-4.1000000000000000e+01 4.1000000000000000e+01
0.0000000000000000e+00 2.0000000000000000e+02
-2.5000000000000000e-01 2.5000000000000000e-01
ITEM: ATOMS id type x y 
42542 5 12.941 58.7481 
42541 5 13.941 58.7492 
42540 5 14.941 58.7502 
42539 5 15.941 58.7512 
42538 5 16.941 58.7523 
42547 5 12.9401 59.6141 
42546 5 13.9401 59.6152 
42545 5 14.9401 59.6162 
42544 5 15.9401 59.6172 
42543 5 16.9401 59.6183 
42552 5 12.9392 60.4801 
42551 5 13.9392 60.4812 
42550 5 14.9392 60.4822 
42549 5 15.9392 60.4832 
42548 5 16.9392 60.4843 
42557 5 12.9383 61.3461 
42556 5 13.9383 61.3472 
42555 5 14.9383 61.3482 
42554 5 15.9383 61.3492 
42553 5 16.9383 61.3503 
42562 5 12.9374 62.2121 
42561 5 13.9374 62.2132 
42560 5 14.9374 62.2142 
42559 5 15.9374 62.2152 
42558 5 16.9374 62.2163 
ITEM: TIMESTEP
330000
ITEM: NUMBER OF ATOMS
25
ITEM: BOX BOUNDS ff fm pp
-4.1000000000000000e+01 4.1000000000000000e+01
0.0000000000000000e+00 2.0000000000000000e+02
-2.5000000000000000e-01 2.5000000000000000e-01
ITEM: ATOMS id type x y 
42542 5 13.4877 54.8697 
42541 5 14.4877 54.8684 
42540 5 15.4877 54.8672 
42539 5 16.4877 54.866 
42538 5 17.4877 54.8648 
42547 5 13.4888 55.7357 
42546 5 14.4888 55.7344 
42545 5 15.4888 55.7332 
42544 5 16.4888 55.732 
42543 5 17.4888 55.7308 
42552 5 13.4898 56.6017 
42551 5 14.4898 56.6004 
42550 5 15.4898 56.5992 
42549 5 16.4898 56.598 
42548 5 17.4898 56.5968 
42557 5 13.4909 57.4677 
42556 5 14.4909 57.4664 
42555 5 15.4909 57.4652 
42554 5 16.4909 57.464 
42553 5 17.4909 57.4628 
42562 5 13.4919 58.3337 
42561 5 14.4919 58.3324 
42560 5 15.4919 58.3312 
42559 5 16.4919 58.33 
42558 5 17.4919 58.3288 
ITEM: TIMESTEP
340000
ITEM: NUMBER OF ATOMS
25
ITEM: BOX BOUNDS ff fm pp
-4.1000000000000000e+01 4.1000000000000000e+01
0.0000000000000000e+00 2.0125548865838670e+02
-2.5000000000000000e-01 2.5000000000000000e-01
ITEM: ATOMS id type x y 
42542 5 14.0513 50.9207 
42541 5 15.0513 50.9165 
42540 5 16.0513 50.9122 
42539 5 17.0513 50.908 
42538 5 18.0513 50.9038 
42547 5 14.055 51.7867 
42546 5 15.055 51.7825 
42545 5 16.0549 51.7782 
42544 5 17.0549 51.774 
42543 5 18.0549 51.7698 
42552 5 14.0586 52.6527 
42551 5 15.0586 52.6485 
42550 5 16.0586 52.6442 
42549 5 17.0586 52.64 
42548 5 18.0586 52.6358 
42557 5 14.0623 53.5187 
42556 5 15.0623 53.5145 
42555 5 16.0623 53.5102 
42554 5 17.0623 53.506 
42553 5 18.0622 53.5018 
42562 5 14.0659 54.3847 
42561 5 15.0659 54.3804 
42560 5 16.0659 54.3762 
42559 5 17.0659 54.372 
42558 5 18.0659 54.3678 
ITEM: TIMESTEP
350000
ITEM: NUMBER OF ATOMS
25
ITEM: BOX BOUNDS ff fm pp
-4.1000000000000000e+01 4.1000000000000000e+01
0.0000000000000000e+00 2.0232753628064850e+02
-2.5000000000000000e-01 2.5000000000000000e-01
ITEM: ATOMS id type x y 
42542 5 14.6491 46.881 
42541 5 15.6491 46.8813 
42540 5 16.6491 46.8815 
42539 5 17.6491 46.8818 
42538 5 18.6491 46.882 
42547 5 14.6489 47.747 
42546 5 15.6489 47.7473 
42545 5 16.6489 47.7475 
42544 5 17.6489 47.7478 
42543 5 18.6489 47.748 
42552 5 14.6487 48.613 
42551 5 15.6487 48.6133 
42550 5 16.6487 48.6135 
42549 5 17.6487 48.6138 
42548 5 18.6487 48.614 
42557 5 14.6484 49.479 
42556 5 15.6484 49.4793 
42555 5 16.6484 49.4795 
42554 5 17.6484 49.4798 
42553 5 18.6484 49.48 
42562 5 14.6482 50.345 
42561 5 15.6482 50.3453 
42560 5 16.6482 50.3455 
42559 5 17.6482 50.3458 
42558 5 18.6482 50.346 
ITEM: TIMESTEP
360000
ITEM: NUMBER OF ATOMS
25
ITEM: BOX BOUNDS ff fm pp
-4.1000000000000000e+01 4.1000000000000000e+01
0.0000000000000000e+00 2.0259220901106596e+02
-2.5000000000000000e-01 2.5000000000000000e-01
ITEM: ATOMS id type x y 
42542 5 15.2601 42.7556 
42541 5 16.2601 42.7587 
42540 5 17.2601 42.7618 
42539 5 18.2601 42.7649 
42538 5 19.2601 42.768 
42547 5 15.2574 43.6216 
42546 5 16.2574 43.6247 
42545 5 17.2574 43.6278 
42544 5 18.2574 43.6309 
42543 5 19.2574 43.634 
42552 5 15.2547 44.4876 
42551 5 16.2547 44.4907 
42550 5 17.2547 44.4938 
42549 5 18.2547 44.4969 
42548 5 19.2547 44.5 
42557 5 15.2521 45.3536 
42556 5 16.2521 45.3567 
42555 5 17.2521 45.3598 
42554 5 18.2521 45.3629 
42553 5 19.252 45.366 
42562 5 15.2494 46.2196 
42561 5 16.2494 46.2227 
42560 5 17.2494 46.2258 
42559 5 18.2494 46.2289 
42558 5 19.2494 46.232 
ITEM: TIMESTEP
370000
ITEM: NUMBER OF ATOMS
25
ITEM: BOX BOUNDS ff fm pp