ITEM: TIMESTEP
0
ITEM: NUMBER OF ATOMS
25
ITEM: BOX BOUNDS ff fm pp
-4.1000000000000000e+01 4.1000000000000000e+01
0.0000000000000000e+00 2.0000000000000000e+02
-2.5000000000000000e-01 2.5000000000000000e-01
ITEM: ATOMS id type x y 
42467 2 -22 140 
42466 2 -21 140 
42465 2 -20 140 
42464 2 -19 140 
42463 2 -18 140 
42472 2 -22 140.866 
42471 2 -21 140.866 
42470 2 -20 140.866 
42469 2 -19 140.866 
42468 2 -18 140.866 
42477 2 -22 141.732 
42476 2 -21 141.732 
42475 2 -20 141.732 
42474 2 -19 141.732 
42473 2 -18 141.732 
42482 2 -22 142.598 
42481 2 -21 142.598 
42480 2 -20 142.598 
42479 2 -19 142.598 
42478 2 -18 142.598 
42487 2 -22 143.464 
42486 2 -21 143.464 
42485 2 -20 143.464 
42484 2 -19 143.464 
42483 2 -18 143.464 
ITEM: TIMESTEP
10000
ITEM: NUMBER OF ATOMS
25
ITEM: BOX BOUNDS ff fm pp
-4.1000000000000000e+01 4.1000000000000000e+01
0.0000000000000000e+00 2.0000000000000000e+02
-2.5000000000000000e-01 2.5000000000000000e-01
ITEM: ATOMS id type x y 
42467 2 -22 139.875 
42466 2 -21 139.875 
42465 2 -20 139.875 
42464 2 -19 139.875 
42463 2 -18 139.875 
42472 2 -22 140.741 
42471 2 -21 140.741 
42470 2 -20 140.741 
42469 2 -19 140.741 
42468 2 -18 140.741 
42477 2 -22 141.607 
42476 2 -21 141.607 
42475 2 -20 141.607 
42474 2 -19 141.607 
42473 2 -18 141.607 
42482 2 -22 142.473 
42481 2 -21 142.473 
42480 2 -20 142.473 
42479 2 -19 142.473 
42478 2 -18 142.473 
42487 2 -22 143.339 
42486 2 -21 143.339 
42485 2 -20 143.339 
42484 2 -19 143.339 
42483 2 -18 143.339 
ITEM: TIMESTEP
20000
ITEM: NUMBER OF ATOMS
25
ITEM: BOX BOUNDS ff fm pp
-4.1000000000000000e+01 4.1000000000000000e+01
0.0000000000000000e+00 2.0000000000000000e+02
-2.5000000000000000e-01 2.5000000000000000e-01
ITEM: ATOMS id type x y 
42467 2 -22 139.5 
42466 2 -21 139.5 
42465 2 -20 139.5 
42464 2 -19 139.5 
42463 2 -18 139.5 
42472 2 -22 140.366 
42471 2 -21 140.366 
42470 2 -20 140.366 
42469 2 -19 140.366 
42468 2 -18 140.366 
42477 2 -22 141.232 
42476 2 -21 141.232 
42475 2 -20 141.232 
42474 2 -19 141.232 
42473 2 -18 141.232 
42482 2 -22 142.098 
42481 2 -21 142.098 
42480 2 -20 142.098 
42479 2 -19 142.098 
42478 2 -18 142.098 
42487 2 -22 142.964 
42486 2 -21 142.964 
42485 2 -20 142.964 
42484 2 -19 142.964 
42483 2 -18 142.964 
ITEM: TIMESTEP
30000
ITEM: NUMBER OF ATOMS
25
ITEM: BOX BOUNDS ff fm pp
-4.1000000000000000e+01 4.1000000000000000e+01
0.0000000000000000e+00 2.0000000000000000e+02
-2.5000000000000000e-01 2.5000000000000000e-01
ITEM: ATOMS id type x y 
42467 2 -22 138.875 
42466 2 -21 138.875 
42465 2 -20 138.875 
42464 2 -19 138.875 
42463 2 -18 138.875 
42472 2 -22 139.741 
42471 2 -21 139.741 
42470 2 -20 139.741 
42469 2 -19 139.741 
42468 2 -18 139.741 
42477 2 -22 140.607 
42476 2 -21 140.607 
42475 2 -20 140.607 
42474 2 -19 140.607 
42473 2 -18 140.607 
42482 2 -22 141.473 
42481 2 -21 141.473 
42480 2 -20 141.473 
42479 2 -19 141.473 
42478 2 -18 141.473 
42487 2 -22 142.339 
42486 2 -21 142.339 
42485 2 -20 142.339 
42484 2 -19 142.339 
42483 2 -18 142.339 
ITEM: TIMESTEP
40000
ITEM: NUMBER OF ATOMS
25
ITEM: BOX BOUNDS ff fm pp
-4.1000000000000000e+01 4.1000000000000000e+01
0.0000000000000000e+00 2.0000000000000000e+02
-2.5000000000000000e-01 2.5000000000000000e-01
ITEM: ATOMS id type x y 
42467 2 -22 138 
42466 2 -21 138 
42465 2 -20 138 
42464 2 -19 138 
42463 2 -18 138 
42472 2 -22 138.866 
42471 2 -21 138.866 
42470 2 -20 138.866 
42469 2 -19 138.866 
42468 2 -18 138.866 
42477 2 -22 139.732 
42476 2 -21 139.732 
42475 2 -20 139.732 
42474 2 -19 139.732 
42473 2 -18 139.732 
42482 2 -22 140.598 
42481 2 -21 140.598 
42480 2 -20 140.598 
42479 2 -19 140.598 
42478 2 -18 140.598 
42487 2 -22 141.464 
42486 2 -21 141.464 
42485 2 -20 141.464 
42484 2 -19 141.464 
42483 2 -18 141.464 
ITEM: TIMESTEP
50000
ITEM: NUMBER OF ATOMS
25
ITEM: BOX BOUNDS ff fm pp
-4.1000000000000000e+01 4.1000000000000000e+01
0.0000000000000000e+00 2.0000000000000000e+02
-2.5000000000000000e-01 2.5000000000000000e-01
ITEM: ATOMS id type x y 
42467 2 -22 136.875 
42466 2 -21 136.875 
42465 2 -20 136.875 
42464 2 -19 136.875 
42463 2 -18 136.875 
42472 2 -22 137.741 
42471 2 -21 137.741 
42470 2 -20 137.741 
42469 2 -19 137.741 
42468 2 -18 137.741 
42477 2 -22 138.607 
42476 2 -21 138.607 
42475 2 -20 138.607 
42474 2 -19 138.607 
42473 2 -18 138.607 
42482 2 -22 139.473 
42481 2 -21 139.473 
42480 2 -20 139.473 
42479 2 -19 139.473 
42478 2 -18 139.473 
42487 2 -22 140.339 
42486 2 -21 140.339 
42485 2 -20 140.339 
42484 2 -19 140.339 
42483 2 -18 140.339 
ITEM: TIMESTEP
60000
ITEM: NUMBER OF ATOMS
25
ITEM: BOX BOUNDS ff fm pp
-4.1000000000000000e+01 4.1000000000000000e+01
0.0000000000000000e+00 2.0000000000000000e+02
-2.5000000000000000e-01 2.5000000000000000e-01
ITEM: ATOMS id type x y 
42467 2 -22 135.5 
42466 2 -21 135.5 
42465 2 -20 135.5 
42464 2 -19 135.5 
42463 2 -18 135.5 
42472 2 -22 136.366 
42471 2 -21 136.366 
42470 2 -20 136.366 
42469 2 -19 136.366 
42468 2 -18 136.366 
42477 2 -22 137.232 
42476 2 -21 137.232 
42475 2 -20 137.232 
42474 2 -19 137.232 
42473 2 -18 137.232 
42482 2 -22 138.098 
42481 2 -21 138.098 
42480 2 -20 138.098 
42479 2 -19 138.098 
42478 2 -18 138.098 
42487 2 -22 138.964 
42486 2 -21 138.964 
42485 2 -20 138.964 
42484 2 -19 138.964 
42483 2 -18 138.964 
ITEM: TIMESTEP
70000
ITEM: NUMBER OF ATOMS
25
ITEM: BOX BOUNDS ff fm pp
-4.1000000000000000e+01 4.1000000000000000e+01
0.0000000000000000e+00 2.0000000000000000e+02
-2.5000000000000000e-01 2.5000000000000000e-01
ITEM: ATOMS id type x y 
42467 2 -22 133.875 
42466 2 -21 133.875 
42465 2 -20 133.875 
42464 2 -19 133.875 
42463 2 -18 133.875 
42472 2 -22 134.741 
42471 2 -21 134.741 
42470 2 -20 134.741 
42469 2 -19 134.741 
42468 2 -18 134.741 
42477 2 -22 135.607 
42476 2 -21 135.607 
42475 2 -20 135.607 
42474 2 -19 135.607 
42473 2 -18 135.607 
42482 2 -22 136.473 
42481 2 -21 136.473 
42480 2 -20 136.473 
42479 2 -19 136.473 
42478 2 -18 136.473 
42487 2 -22 137.339 
42486 2 -21 137.339 
42485 2 -20 137.339 
42484 2 -19 137.339 
42483 2 -18 137.339 
ITEM: TIMESTEP
80000
ITEM: NUMBER OF ATOMS
25
ITEM: BOX BOUNDS ff fm pp
-4.1000000000000000e+01 4.1000000000000000e+01
0.0000000000000000e+00 2.0000000000000000e+02
-2.5000000000000000e-01 2.5000000000000000e-01
ITEM: ATOMS id type x y 
42467 2 -22 132 
42466 2 -21 132 
42465 2 -20 132 
42464 2 -19 132 
42463 2 -18 132 
42472 2 -22 132.866 
42471 2 -21 132.866 
42470 2 -20 132.866 
42469 2 -19 132.866 
42468 2 -18 132.866 
42477 2 -22 133.732 
42476 2 -21 133.732 
42475 2 -20 133.732 
42474 2 -19 133.732 
42473 2 -18 133.732 
42482 2 -22 134.598 
42481 2 -21 134.598 
42480 2 -20 134.598 
42479 2 -19 134.598 
42478 2 -18 134.598 
42487 2 -22 135.464 
42486 2 -21 135.464 
42485 2 -20 135.464 
42484 2 -19 135.464 
42483 2 -18 135.464 
ITEM: TIMESTEP
90000
ITEM: NUMBER OF ATOMS
25
ITEM: BOX BOUNDS ff fm pp
-4.1000000000000000e+01 4.1000000000000000e+01
0.0000000000000000e+00 2.0000000000000000e+02
-2.5000000000000000e-01 2.5000000000000000e-01
ITEM: ATOMS id type x y 
42467 2 -22 129.875 
42466 2 -21 129.875 
42465 2 -20 129.875 
42464 2 -19 129.875 
42463 2 -18 129.875 
42472 2 -22 130.741 
42471 2 -21 130.741 
42470 2 -20 130.741 
42469 2 -19 130.741 
42468 2 -18 130.741 
42477 2 -22 131.607 
42476 2 -21 131.607 
42475 2 -20 131.607 
42474 2 -19 131.607 
42473 2 -18 131.607 
42482 2 -22 132.473 
42481 2 -21 132.473 
42480 2 -20 132.473 
42479 2 -19 132.473 
42478 2 -18 132.473 
42487 2 -22 133.339 
42486 2 -21 133.339 
42485 2 -20 133.339 
42484 2 -19 133.339 
42483 2 -18 133.339 
ITEM: TIMESTEP
100000
ITEM: NUMBER OF ATOMS
25
ITEM: BOX BOUNDS ff fm pp
-4.1000000000000000e+01 4.1000000000000000e+01
0.0000000000000000e+00 2.0000000000000000e+02
-2.5000000000000000e-01 2.5000000000000000e-01
ITEM: ATOMS id type x y 
42467 2 -22 127.5 
42466 2 -21 127.5 
42465 2 -20 127.5 
42464 2 -19 127.5 
42463 2 -18 127.5 
42472 2 -22 128.366 
42471 2 -21 128.366 
42470 2 -20 128.366 
42469 2 -19 128.366 
42468 2 -18 128.366 
42477 2 -22 129.232 
42476 2 -21 129.232 
42475 2 -20 129.232 
42474 2 -19 129.232 
42473 2 -18 129.232 
42482 2 -22 130.098 
42481 2 -21 130.098 
42480 2 -20 130.098 
42479 2 -19 130.098 
42478 2 -18 130.098 
42487 2 -22 130.964 
42486 2 -21 130.964 
42485 2 -20 130.964 
42484 2 -19 130.964 
42483 2 -18 130.964 
ITEM: TIMESTEP
110000
ITEM: NUMBER OF ATOMS
25
ITEM: BOX BOUNDS ff fm pp
-4.1000000000000000e+01 4.1000000000000000e+01
0.0000000000000000e+00 2.0000000000000000e+02
-2.5000000000000000e-01 2.5000000000000000e-01
ITEM: ATOMS id type x y 
42467 2 -22 124.875 
42466 2 -21 124.875 
42465 2 -20 124.875 
42464 2 -19 124.875 
42463 2 -18 124.875 
42472 2 -22 125.741 
42471 2 -21 125.741 
42470 2 -20 125.741 
42469 2 -19 125.741 
42468 2 -18 125.741 
42477 2 -22 126.607 
42476 2 -21 126.607 
42475 2 -20 126.607 
42474 2 -19 126.607 
42473 2 -18 126.607 
42482 2 -22 127.473 
42481 2 -21 127.473 
42480 2 -20 127.473 
42479 2 -19 127.473 
42478 2 -18 127.473 
42487 2 -22 128.339 
42486 2 -21 128.339 
42485 2 -20 128.339 
42484 2 -19 128.339 
42483 2 -18 128.339 
ITEM: TIMESTEP
120000
ITEM: NUMBER OF ATOMS
25
ITEM: BOX BOUNDS ff fm pp
-4.1000000000000000e+01 4.1000000000000000e+01
0.0000000000000000e+00 2.0000000000000000e+02
-2.5000000000000000e-01 2.5000000000000000e-01
ITEM: ATOMS id type x y 
42467 2 -22 122 
42466 2 -21 122 
42465 2 -20 122 
42464 2 -19 122 
42463 2 -18 122 
42472 2 -22 122.866 
42471 2 -21 122.866 
42470 2 -20 122.866 
42469 2 -19 122.866 
42468 2 -18 122.866 
42477 2 -22 123.732 
42476 2 -21 123.732 
42475 2 -20 123.732 
42474 2 -19 123.732 
42473 2 -18 123.732 
42482 2 -22 124.598 
42481 2 -21 124.598 
42480 2 -20 124.598 
42479 2 -19 124.598 
42478 2 -18 124.598 
42487 2 -22 125.464 
42486 2 -21 125.464 
42485 2 -20 125.464 
42484 2 -19 125.464 
42483 2 -18 125.464 
ITEM: TIMESTEP
130000
ITEM: NUMBER OF ATOMS
25
ITEM: BOX BOUNDS ff fm pp
-4.1000000000000000e+01 4.1000000000000000e+01
0.0000000000000000e+00 2.0000000000000000e+02
-2.5000000000000000e-01 2.5000000000000000e-01
ITEM: ATOMS id type x y 
42467 2 -22.0019 118.905 
42466 2 -21.0019 118.905 
42465 2 -20.0019 118.905 
42464 2 -19.0019 118.905 
42463 2 -18.0019 118.904 
42472 2 -22.0017 119.771 
42471 2 -21.0017 119.771 
42470 2 -20.0017 119.771 
42469 2 -19.0017 119.771 
42468 2 -18.0017 119.77 
42477 2 -22.0016 120.637 
42476 2 -21.0016 120.637 
42475 2 -20.0016 120.637 
42474 2 -19.0016 120.637 
42473 2 -18.0016 120.636 
42482 2 -22.0015 121.503 
42481 2 -21.0015 121.503 
42480 2 -20.0015 121.503 
42479 2 -19.0015 121.503 
42478 2 -18.0015 121.502 
42487 2 -22.0013 122.369 
42486 2 -21.0013 122.369 
42485 2 -20.0013 122.369 
42484 2 -19.0013 122.369 
42483 2 -18.0013 122.368 
ITEM: TIMESTEP
140000
ITEM: NUMBER OF ATOMS
25
ITEM: BOX BOUNDS ff fm pp
-4.1000000000000000e+01 4.1000000000000000e+01
0.0000000000000000e+00 2.0000000000000000e+02
-2.5000000000000000e-01 2.5000000000000000e-01
ITEM: ATOMS id type x y 
42467 2 -22.0206 115.696 
42466 2 -21.0206 115.696 
42465 2 -20.0206 115.696 
42464 2 -19.0206 115.695 
42463 2 -18.0206 115.695 
42472 2 -22.0204 116.562 
42471 2 -21.0204 116.562 
42470 2 -20.0204 116.562 
42469 2 -19.0204 116.561 
42468 2 -18.0204 116.561 
42477 2 -22.0202 117.428 
42476 2 -21.0202 117.428 
42475 2 -20.0202 117.428 
42474 2 -19.0202 117.427 
42473 2 -18.0202 117.427 
42482 2 -22.02 118.294 
42481 2 -21.02 118.294 
42480 2 -20.02 118.294 
42479 2 -19.02 118.293 
42478 2 -18.02 118.293 
42487 2 -22.0198 119.16 
42486 2 -21.0198 119.16 
42485 2 -20.0198 119.16 
42484 2 -19.0198 119.159 
42483 2 -18.0198 119.159 
ITEM: TIMESTEP
150000
ITEM: NUMBER OF ATOMS
25
ITEM: BOX BOUNDS ff fm pp
-4.1000000000000000e+01 4.1000000000000000e+01
0.0000000000000000e+00 2.0000000000000000e+02
-2.5000000000000000e-01 2.5000000000000000e-01
ITEM: ATOMS id type x y 
42467 2 -22.0755 112.372 
42466 2 -21.0755 112.371 
42465 2 -20.0755 112.37 
42464 2 -19.0755 112.369 
42463 2 -18.0755 112.368 
42472 2 -22.0747 113.238 
42471 2 -21.0747 113.237 
42470 2 -20.0747 113.236 
42469 2 -19.0747 113.235 
42468 2 -18.0747 113.234 
42477 2 -22.0739 114.104 
42476 2 -21.0739 114.103 
42475 2 -20.0739 114.102 
42474 2 -19.0739 114.101 
42473 2 -18.0739 114.1 
42482 2 -22.0731 114.97 
42481 2 -21.0731 114.969 
42480 2 -20.0731 114.968 
42479 2 -19.0731 114.967 
42478 2 -18.0731 114.966 
42487 2 -22.0723 115.836 
42486 2 -21.0723 115.835 
42485 2 -20.0723 115.834 
42484 2 -19.0723 115.833 
42483 2 -18.0723 115.832 
ITEM: TIMESTEP
160000
ITEM: NUMBER OF ATOMS
25
ITEM: BOX BOUNDS ff fm pp
-4.1000000000000000e+01 4.1000000000000000e+01
0.0000000000000000e+00 2.0000000000000000e+02
-2.5000000000000000e-01 2.5000000000000000e-01
ITEM: ATOMS id type x y 
42467 2 -22.1879 109.019 
42466 2 -21.1879 109.018 
42465 2 -20.1879 109.018 
42464 2 -19.1879 109.017 
42463 2 -18.1879 109.016 
42472 2 -22.1873 109.885 
42471 2 -21.1873 109.884 
42470 2 -20.1873 109.884 
42469 2 -19.1873 109.883 
42468 2 -18.1873 109.882 
42477 2 -22.1867 110.751 
42476 2 -21.1867 110.75 
42475 2 -20.1867 110.75 
42474 2 -19.1867 110.749 
42473 2 -18.1867 110.748 
42482 2 -22.1861 111.617 
42481 2 -21.1861 111.616 
42480 2 -20.1861 111.616 
42479 2 -19.1861 111.615 
42478 2 -18.1861 111.614 
42487 2 -22.1855 112.483 
42486 2 -21.1855 112.482 
42485 2 -20.1855 112.482 
42484 2 -19.1855 112.481 
42483 2 -18.1855 112.48 
ITEM: TIMESTEP
170000
ITEM: NUMBER OF ATOMS
25
ITEM: BOX BOUNDS ff fm pp
-4.1000000000000000e+01 4.1000000000000000e+01
0.0000000000000000e+00 2.0000000000000000e+02
-2.5000000000000000e-01 2.5000000000000000e-01
ITEM: ATOMS id type x y 
42467 2 -22.3591 105.637 
42466 2 -21.3591 105.637 
42465 2 -20.3591 105.637 
42464 2 -19.3591 105.637 
42463 2 -18.3591 105.636 
42472 2 -22.359 106.503 
42471 2 -21.359 106.503 
42470 2 -20.359 106.503 
42469 2 -19.359 106.503 
42468 2 -18.359 106.502 
42477 2 -22.3588 107.369 
42476 2 -21.3588 107.369 
42475 2 -20.3588 107.369 
42474 2 -19.3588 107.369 
42473 2 -18.3588 107.368 
42482 2 -22.3586 108.235 
42481 2 -21.3586 108.235 
42480 2 -20.3586 108.235 
42479 2 -19.3586 108.235 
42478 2 -18.3586 108.234 
42487 2 -22.3584 109.101 
42486 2 -21.3584 109.101 
42485 2 -20.3584 109.101 
42484 2 -19.3584 109.101 
42483 2 -18.3584 109.1 
ITEM: TIMESTEP
180000
ITEM: NUMBER OF ATOMS
25
ITEM: BOX BOUNDS ff fm pp
-4.1000000000000000e+01 4.1000000000000000e+01
0.0000000000000000e+00 2.0000000000000000e+02
-2.5000000000000000e-01 2.5000000000000000e-01
ITEM: ATOMS id type x y 
42467 2 -22.5922 102.206 
42466 2 -21.5922 102.205 
42465 2 -20.5922 102.204 
42464 2 -19.5922 102.203 
42463 2 -18.5922 102.203 
42472 2 -22.5915 103.072 
42471 2 -21.5915 103.071 
42470 2 -20.5915 103.07 
42469 2 -19.5915 103.069 
42468 2 -18.5915 103.069 
42477 2 -22.5908 103.938 
42476 2 -21.5908 103.937 
42475 2 -20.5908 103.936 
42474 2 -19.5908 103.935 
42473 2 -18.5908 103.935 
42482 2 -22.5902 104.804 
42481 2 -21.5902 104.803 
42480 2 -20.5902 104.802 
42479 2 -19.5902 104.801 
42478 2 -18.5902 104.801 
42487 2 -22.5895 105.67 
42486 2 -21.5895 105.669 
42485 2 -20.5895 105.668 
42484 2 -19.5895 105.667 
42483 2 -18.5895 105.667 
ITEM: TIMESTEP
190000
ITEM: NUMBER OF ATOMS
25
ITEM: BOX BOUNDS ff fm pp
-4.1000000000000000e+01 4.1000000000000000e+01
0.0000000000000000e+00 2.0000000000000000e+02
-2.5000000000000000e-01 2.5000000000000000e-01
ITEM: ATOMS id type x y 
42467 2 -22.8727 98.7209 
42466 2 -21.8727 98.7228 
42465 2 -20.8727 98.7248 
42464 2 -19.8727 98.7267 
42463 2 -18.8727 98.7286 
42472 2 -22.8743 99.5869 
42471 2 -21.8743 99.5888 
42470 2 -20.8743 99.5908 
42469 2 -19.8743 99.5927 
42468 2 -18.8743 99.5946 
42477 2 -22.876 100.453 
42476 2 -21.876 100.455 
42475 2 -20.876 100.457 
42474 2 -19.876 100.459 
42473 2 -18.876 100.461 
42482 2 -22.8777 101.319 
42481 2 -21.8777 101.321 
42480 2 -20.8777 101.323 
42479 2 -19.8777 101.325 
42478 2 -18.8777 101.327 
42487 2 -22.8793 102.185 
42486 2 -21.8793 102.187 
42485 2 -20.8793 102.189 
42484 2 -19.8793 102.191 
42483 2 -18.8793 102.193 
ITEM: TIMESTEP
200000
ITEM: NUMBER OF ATOMS
25
ITEM: BOX BOUNDS ff fm pp
-4.1000000000000000e+01 4.1000000000000000e+01
0.0000000000000000e+00 2.0000000000000000e+02
-2.5000000000000000e-01 2.5000000000000000e-01
ITEM: ATOMS id type x y 
42467 2 -23.2105 95.1929 
42466 2 -22.2105 95.1959 
42465 2 -21.2105 95.1989 
42464 2 -20.2105 95.202 
42463 2 -19.2105 95.205 
42472 2 -23.2132 96.0589 
42471 2 -22.2132 96.0619 
42470 2 -21.2132 96.0649 
42469 2 -20.2132 96.068 
42468 2 -19.2132 96.071 
42477 2 -23.2158 96.9249 
42476 2 -22.2158 96.9279 
42475 2 -21.2158 96.9309 
42474 2 -20.2158 96.934 
42473 2 -19.2158 96.937 
42482 2 -23.2184 97.7909 
42481 2 -22.2184 97.7939 
42480 2 -21.2184 97.7969 
42479 2 -20.2184 97.8 
42478 2 -19.2184 97.803 
42487 2 -23.221 98.6569 
42486 2 -22.221 98.6599 
42485 2 -21.221 98.6629 
42484 2 -20.221 98.666 
42483 2 -19.221 98.669 
ITEM: TIMESTEP
210000
ITEM: NUMBER OF ATOMS
25
ITEM: BOX BOUNDS ff fm pp
-4.1000000000000000e+01 4.1000000000000000e+01
0.0000000000000000e+00 2.0000000000000000e+02
-2.5000000000000000e-01 2.5000000000000000e-01
ITEM: ATOMS id type x y 
42467 2 -23.6075 91.6067 
42466 2 -22.6075 91.6077 
42465 2 -21.6075 91.6086 
42464 2 -20.6075 91.6096 
42463 2 -19.6075 91.6106 
42472 2 -23.6083 92.4727 
42471 2 -22.6083 92.4737 
42470 2 -21.6083 92.4746 
42469 2 -20.6084 92.4756 
42468 2 -19.6084 92.4766 
42477 2 -23.6092 93.3387 
42476 2 -22.6092 93.3397 
42475 2 -21.6092 93.3406 
42474 2 -20.6092 93.3416 
42473 2 -19.6092 93.3426 
42482 2 -23.61 94.2047 
42481 2 -22.61 94.2057 
42480 2 -21.61 94.2066 
42479 2 -20.61 94.2076 
42478 2 -19.61 94.2086 
42487 2 -23.6109 95.0707 
42486 2 -22.6109 95.0717 
42485 2 -21.6109 95.0726 
42484 2 -20.6109 95.0736 
42483 2 -19.6109 95.0746 
ITEM: TIMESTEP
220000
ITEM: NUMBER OF ATOMS
25
ITEM: BOX BOUNDS ff fm pp
-4.1000000000000000e+01 4.1000000000000000e+01
0.0000000000000000e+00 2.0000000000000000e+02
-2.5000000000000000e-01 2.5000000000000000e-01
ITEM: ATOMS id type x y 
42467 2 -24.0698 87.9527 
42466 2 -23.0698 87.9521 
42465 2 -22.0698 87.9515 
42464 2 -21.0698 87.9509 
42463 2 -20.0698 87.9503 
42472 2 -24.0693 88.8187 
42471 2 -23.0693 88.8181 
42470 2 -22.0693 88.8175 
42469 2 -21.0693 88.8169 
42468 2 -20.0693 88.8163 
42477 2 -24.0688 89.6847 
42476 2 -23.0688 89.6841 
42475 2 -22.0688 89.6835 
42474 2 -21.0688 89.6829 
42473 2 -20.0688 89.6823 
42482 2 -24.0683 90.5507 
42481 2 -23.0683 90.5501 
42480 2 -22.0683 90.5495 
42479 2 -21.0683 90.5489 
42478 2 -20.0683 90.5483 
42487 2 -24.0677 91.4167 
42486 2 -23.0677 91.4161 
42485 2 -22.0677 91.4155 
42484 2 -21.0677 91.4149 
42483 2 -20.0677 91.4143 
ITEM: TIMESTEP
230000
ITEM: NUMBER OF ATOMS
25
ITEM: BOX BOUNDS ff fm pp
-4.1000000000000000e+01 4.1000000000000000e+01
0.0000000000000000e+00 2.0000000000000000e+02
-2.5000000000000000e-01 2.5000000000000000e-01
ITEM: ATOMS id type x y 
42467 2 -24.5876 84.2431 
42466 2 -23.5876 84.2424 
42465 2 -22.5876 84.2418 
42464 2 -21.5876 84.2411 
42463 2 -20.5876 84.2404 
42472 2 -24.587 85.1091 
42471 2 -23.587 85.1084 
42470 2 -22.587 85.1078 
42469 2 -21.587 85.1071 
42468 2 -20.587 85.1064 
42477 2 -24.5864 85.9751 
42476 2 -23.5864 85.9744 
42475 2 -22.5864 85.9738 
42474 2 -21.5864 85.9731 
42473 2 -20.5864 85.9724 
42482 2 -24.5858 86.8411 
42481 2 -23.5858 86.8404 
42480 2 -22.5858 86.8398 
42479 2 -21.5858 86.8391 
42478 2 -20.5858 86.8384 
42487 2 -24.5853 87.7071 
42486 2 -23.5853 87.7064 
42485 2 -22.5853 87.7058 
42484 2 -21.5853 87.7051 
42483 2 -20.5853 87.7044 
ITEM: TIMESTEP
240000
ITEM: NUMBER OF ATOMS
25
ITEM: BOX BOUNDS ff fm pp
-4.1000000000000000e+01 4.1000000000000000e+01
0.0000000000000000e+00 2.0000000000000000e+02
-2.5000000000000000e-01 2.5000000000000000e-01
ITEM: ATOMS id type x y 
42467 2 -25.1515 80.4928 
42466 2 -24.1515 80.4958 
42465 2 -23.1515 80.4987 
42464 2 -22.1515 80.5017 
42463 2 -21.1515 80.5047 
42472 2 -25.1541 81.3588 
42471 2 -24.1541 81.3618 
42470 2 -23.1541 81.3647 
42469 2 -22.1541 81.3677 
42468 2 -21.1541 81.3706 
42477 2 -25.1566 82.2248 
42476 2 -24.1566 82.2278 
42475 2 -23.1566 82.2307 
42474 2 -22.1566 82.2337 
42473 2 -21.1566 82.2366 
42482 2 -25.1592 83.0908 
42481 2 -24.1592 83.0938 
42480 2 -23.1592 83.0967 
42479 2 -22.1592 83.0997 
42478 2 -21.1592 83.1026 
42487 2 -25.1617 83.9568 
42486 2 -24.1617 83.9598 
42485 2 -23.1617 83.9627 
42484 2 -22.1617 83.9657 
42483 2 -21.1618 83.9686 
ITEM: TIMESTEP
250000
ITEM: NUMBER OF ATOMS
25
ITEM: BOX BOUNDS ff fm pp
-4.1000000000000000e+01 4.1000000000000000e+01
0.0000000000000000e+00 2.0000000000000000e+02
-2.5000000000000000e-01 2.5000000000000000e-01
ITEM: ATOMS id type x y 
42467 2 -25.7642 76.7188 
42466 2 -24.7642 76.7218 
42465 2 -23.7642 76.7249 
42464 2 -22.7642 76.728 
42463 2 -21.7642 76.7311 
42472 2 -25.7669 77.5848 
42471 2 -24.7669 77.5878 
42470 2 -23.7669 77.5909 
42469 2 -22.7669 77.594 
42468 2 -21.7669 77.5971 
42477 2 -25.7695 78.4507 
42476 2 -24.7695 78.4538 
42475 2 -23.7696 78.4569 
42474 2 -22.7696 78.46 
42473 2 -21.7696 78.4631 
42482 2 -25.7722 79.3167 
42481 2 -24.7722 79.3198 
42480 2 -23.7722 79.3229 
42479 2 -22.7722 79.326 
42478 2 -21.7722 79.3291 
42487 2 -25.7749 80.1827 
42486 2 -24.7749 80.1858 
42485 2 -23.7749 80.1889 
42484 2 -22.7749 80.192 
42483 2 -21.7749 80.1951 
ITEM: TIMESTEP
260000
ITEM: NUMBER OF ATOMS
25
ITEM: BOX BOUNDS ff fm pp
-4.1000000000000000e+01 4.1000000000000000e+01
0.0000000000000000e+00 2.0000000000000000e+02
-2.5000000000000000e-01 2.5000000000000000e-01
ITEM: ATOMS id type x y 
42467 2 -26.4276 72.9246 
42466 2 -25.4276 72.9272 
42465 2 -24.4276 72.9298 
42464 2 -23.4277 72.9324 
42463 2 -22.4277 72.9351 
42472 2 -26.4299 73.7906 
42471 2 -25.4299 73.7932 
42470 2 -24.4299 73.7958 
42469 2 -23.4299 73.7984 
42468 2 -22.4299 73.8011 
42477 2 -26.4322 74.6566 
42476 2 -25.4322 74.6592 
42475 2 -24.4322 74.6618 
42474 2 -23.4322 74.6644 
42473 2 -22.4322 74.6671 
42482 2 -26.4345 75.5226 
42481 2 -25.4345 75.5252 
42480 2 -24.4345 75.5278 
42479 2 -23.4345 75.5304 
42478 2 -22.4345 75.5331 
42487 2 -26.4367 76.3886 
42486 2 -25.4367 76.3912 
42485 2 -24.4367 76.3938 
42484 2 -23.4367 76.3964 
42483 2 -22.4368 76.3991 
ITEM: TIMESTEP
270000
ITEM: NUMBER OF ATOMS
25
ITEM: BOX BOUNDS ff fm pp
-4.1000000000000000e+01 4.1000000000000000e+01
0.0000000000000000e+00 2.0000000000000000e+02
-2.5000000000000000e-01 2.5000000000000000e-01
ITEM: ATOMS id type x y 
42467 2 -27.1478 69.126 
42466 2 -26.1478 69.1274 
42465 2 -25.1478 69.1288 
42464 2 -24.1478 69.1301 
42463 2 -23.1478 69.1315 
42472 2 -27.149 69.992 
42471 2 -26.149 69.9934 
42470 2 -25.149 69.9948 
42469 2 -24.149 69.9961 
42468 2 -23.149 69.9975 
42477 2 -27.1502 70.858 
42476 2 -26.1502 70.8594 
42475 2 -25.1502 70.8608 
42474 2 -24.1502 70.8621 
42473 2 -23.1502 70.8635 
42482 2 -27.1513 71.724 
42481 2 -26.1513 71.7254 
42480 2 -25.1513 71.7268 
42479 2 -24.1513 71.7281 
42478 2 -23.1513 71.7295 
42487 2 -27.1525 72.59 
42486 2 -26.1525 72.5914 
42485 2 -25.1525 72.5928 
42484 2 -24.1525 72.5941 
42483 2 -23.1525 72.5955 
ITEM: TIMESTEP
280000
ITEM: NUMBER OF ATOMS
25
ITEM: BOX BOUNDS ff fm pp
-4.1000000000000000e+01 4.1000000000000000e+01
0.0000000000000000e+00 2.0000000000000000e+02
-2.5000000000000000e-01 2.5000000000000000e-01
ITEM: ATOMS id type x y 
42467 2 -27.9055 65.3175 
42466 2 -26.9056 65.3202 
42465 2 -25.9056 65.3228 
42464 2 -24.9056 65.3255 
42463 2 -23.9056 65.3282 
42472 2 -27.9079 66.1835 
42471 2 -26.9079 66.1862 
42470 2 -25.9079 66.1888 
42469 2 -24.9079 66.1915 
42468 2 -23.9079 66.1942 
42477 2 -27.9102 67.0495 
42476 2 -26.9102 67.0521 
42475 2 -25.9102 67.0548 
42474 2 -24.9102 67.0575 
42473 2 -23.9102 67.0602 
42482 2 -27.9125 67.9155 
42481 2 -26.9125 67.9181 
42480 2 -25.9125 67.9208 
42479 2 -24.9125 67.9235 
42478 2 -23.9125 67.9262 
42487 2 -27.9148 68.7815 
42486 2 -26.9148 68.7841 
42485 2 -25.9148 68.7868 
42484 2 -24.9148 68.7895 
42483 2 -23.9148 68.7922 
ITEM: TIMESTEP
290000
ITEM: NUMBER OF ATOMS
25
ITEM: BOX BOUNDS ff fm pp
-4.1000000000000000e+01 4.1000000000000000e+01
0.0000000000000000e+00 2.0000000000000000e+02
-2.5000000000000000e-01 2.5000000000000000e-01
ITEM: ATOMS id type x y 
42467 2 -28.695 61.5141 
42466 2 -27.695 61.5159 
42465 2 -26.695 61.5176 
42464 2 -25.695 61.5194 
42463 2 -24.695 61.5211 
42472 2 -28.6965 62.3801 
42471 2 -27.6965 62.3819 
42470 2 -26.6965 62.3836 
42469 2 -25.6965 62.3854 
42468 2 -24.6965 62.3871 
42477 2 -28.698 63.2461 
42476 2 -27.698 63.2478 
42475 2 -26.698 63.2496 
42474 2 -25.698 63.2514 
42473 2 -24.698 63.2531 
42482 2 -28.6996 64.1121 
42481 2 -27.6996 64.1138 
42480 2 -26.6996 64.1156 
42479 2 -25.6996 64.1174 
42478 2 -24.6996 64.1191 
42487 2 -28.7011 64.9781 
42486 2 -27.7011 64.9798 
42485 2 -26.7011 64.9816 
42484 2 -25.7011 64.9834 
42483 2 -24.7011 64.9851 
ITEM: TIMESTEP
300000
ITEM: NUMBER OF ATOMS
25
ITEM: BOX BOUNDS ff fm pp
-4.1000000000000000e+01 4.1000000000000000e+01
0.0000000000000000e+00 2.0000000000000000e+02
-2.5000000000000000e-01 2.5000000000000000e-01
ITEM: ATOMS id type x y 
42467 2 -29.523 57.7332 
42466 2 -28.5231 57.7306 
42465 2 -27.5231 57.728 
42464 2 -26.5231 57.7255 
42463 2 -25.5231 57.7229 
42472 2 -29.5208 58.5992 
42471 2 -28.5208 58.5966 
42470 2 -27.5208 58.594 
42469 2 -26.5208 58.5915 
42468 2 -25.5208 58.5889 
42477 2 -29.5186 59.4651 
42476 2 -28.5186 59.4626 
42475 2 -27.5186 59.46 
42474 2 -26.5186 59.4575 
42473 2 -25.5186 59.4549 
42482 2 -29.5164 60.3311 
42481 2 -28.5164 60.3286 
42480 2 -27.5164 60.326 
42479 2 -26.5164 60.3235 
42478 2 -25.5164 60.3209 
42487 2 -29.5142 61.1971 
42486 2 -28.5142 61.1946 
42485 2 -27.5142 61.192 
42484 2 -26.5142 61.1895 
42483 2 -25.5142 61.1869 
ITEM: TIMESTEP
310000
ITEM: NUMBER OF ATOMS
25
ITEM: BOX BOUNDS ff fm pp
-4.1000000000000000e+01 4.1000000000000000e+01
0.0000000000000000e+00 2.0000000000000000e+02
-2.5000000000000000e-01 2.5000000000000000e-01
ITEM: ATOMS id type x y 
42467 2 -30.3533 53.9718 
42466 2 -29.3533 53.9702 
42465 2 -28.3533 53.9686 
42464 2 -27.3533 53.9669 
42463 2 -26.3533 53.9653 
42472 2 -30.3519 54.8378 
42471 2 -29.3519 54.8362 
42470 2 -28.3519 54.8346 
42469 2 -27.3519 54.8329 
42468 2 -26.3519 54.8313 
42477 2 -30.3504 55.7038 
42476 2 -29.3504 55.7022 
42475 2 -28.3504 55.7006 
42474 2 -27.3504 55.6989 
42473 2 -26.3504 55.6973 
42482 2 -30.349 56.5698 
42481 2 -29.349 56.5682 
42480 2 -28.349 56.5666 
42479 2 -27.349 56.5649 
42478 2 -26.349 56.5633 
42487 2 -30.3476 57.4358 
42486 2 -29.3476 57.4342 
42485 2 -28.3476 57.4326 
42484 2 -27.3476 57.4309 
42483 2 -26.3476 57.4293 
ITEM: TIMESTEP
320000
ITEM: NUMBER OF ATOMS
25
ITEM: BOX BOUNDS ff fm pp
-4.1000000000000000e+01 4.1000000000000000e+01
0.0000000000000000e+00 2.0000000000000000e+02
-2.5000000000000000e-01 2.5000000000000000e-01
ITEM: ATOMS id type x y 
42467 2 -31.1833 50.2441 
42466 2 -30.1833 50.2451 
42465 2 -29.1833 50.2461 
42464 2 -28.1833 50.2471 
42463 2 -27.1833 50.2481 
42472 2 -31.1842 51.1101 
42471 2 -30.1842 51.1111 
42470 2 -29.1842 51.1121 
42469 2 -28.1842 51.1131 
42468 2 -27.1842 51.1141 
42477 2 -31.1851 51.9761 
42476 2 -30.1851 51.9771 
42475 2 -29.1851 51.9781 
42474 2 -28.1851 51.9791 
42473 2 -27.1851 51.9801 
42482 2 -31.1859 52.8421 
42481 2 -30.1859 52.8431 
42480 2 -29.1859 52.8441 
42479 2 -28.1859 52.8451 
42478 2 -27.1859 52.8461 
42487 2 -31.1868 53.7081 
42486 2 -30.1868 53.7091 
42485 2 -29.1868 53.7101 
42484 2 -28.1868 53.7111 
42483 2 -27.1868 53.7121 
ITEM: TIMESTEP
330000
ITEM: NUMBER OF ATOMS
25
ITEM: BOX BOUNDS ff fm pp
-4.1000000000000000e+01 4.1000000000000000e+01
0.0000000000000000e+00 2.0000000000000000e+02
-2.5000000000000000e-01 2.5000000000000000e-01
ITEM: ATOMS id type x y 
42467 2 -32.0083 46.5891 
42466 2 -31.0083 46.5922 
42465 2 -30.0083 46.5953 
42464 2 -29.0083 46.5984 
42463 2 -28.0083 46.6015 
42472 2 -32.011 47.4551 
42471 2 -31.011 47.4582 
42470 2 -30.011 47.4613 
42469 2 -29.011 47.4644 
42468 2 -28.011 47.4675 
42477 2 -32.0137 48.3211 
42476 2 -31.0137 48.3242 
42475 2 -30.0137 48.3273 
42474 2 -29.0137 48.3304 
42473 2 -28.0137 48.3335 
42482 2 -32.0164 49.1871 
42481 2 -31.0164 49.1902 
42480 2 -30.0164 49.1933 
42479 2 -29.0164 49.1964 
42478 2 -28.0164 49.1995 
42487 2 -32.019 50.0531 
42486 2 -31.019 50.0562 
42485 2 -30.0191 50.0593 
42484 2 -29.0191 50.0624 
42483 2 -28.0191 50.0655 
ITEM: TIMESTEP
340000
ITEM: NUMBER OF ATOMS
25
ITEM: BOX BOUNDS ff fm pp
-4.1000000000000000e+01 4.1000000000000000e+01
0.0000000000000000e+00 2.0125548865838670e+02
-2.5000000000000000e-01 2.5000000000000000e-01
ITEM: ATOMS id type x y 
42467 2 -32.8127 43.0717 
42466 2 -31.8127 43.0708 
42465 2 -30.8127 43.0699 
42464 2 -29.8127 43.069 
42463 2 -28.8127 43.0682 
42472 2 -32.8119 43.9377 
42471 2 -31.8119 43.9368 
42470 2 -30.8119 43.9359 
42469 2 -29.8119 43.935 
42468 2 -28.8119 43.9342 
42477 2 -32.8111 44.8037 
42476 2 -31.8111 44.8028 
42475 2 -30.8111 44.8019 
42474 2 -29.8111 44.801 
42473 2 -28.8111 44.8002 
42482 2 -32.8104 45.6697 
42481 2 -31.8104 45.6688 
42480 2 -30.8104 45.6679 
42479 2 -29.8104 45.667 
42478 2 -28.8104 45.6662 
42487 2 -32.8096 46.5357 
42486 2 -31.8096 46.5348 
42485 2 -30.8096 46.5339 
42484 2 -29.8096 46.533 
42483 2 -28.8096 46.5322 
ITEM: TIMESTEP
350000
ITEM: NUMBER OF ATOMS
25
ITEM: BOX BOUNDS ff fm pp
-4.1000000000000000e+01 4.1000000000000000e+01
0.0000000000000000e+00 2.0232753628064850e+02
-2.5000000000000000e-01 2.5000000000000000e-01
ITEM: ATOMS id type x y 
42467 2 -33.5895 39.6388 
42466 2 -32.5895 39.6364 
42465 2 -31.5895 39.6339 
42464 2 -30.5895 39.6315 
42463 2 -29.5895 39.6291 
42472 2 -33.5874 40.5048 
42471 2 -32.5874 40.5024 
42470 2 -31.5874 40.4999 
42469 2 -30.5874 40.4975 
42468 2 -29.5874 40.4951 
42477 2 -33.5853 41.3708 
42476 2 -32.5853 41.3684 
42475 2 -31.5853 41.3659 
42474 2 -30.5853 41.3635 
42473 2 -29.5853 41.3611 
42482 2 -33.5832 42.2368 
42481 2 -32.5832 42.2344 
42480 2 -31.5832 42.2319 
42479 2 -30.5832 42.2295 
42478 2 -29.5832 42.2271 
42487 2 -33.5811 43.1028 