ITEM: TIMESTEP
0
ITEM: NUMBER OF ATOMS
25
ITEM: BOX BOUNDS ff fm pp
-4.1000000000000000e+01 4.1000000000000000e+01
0.0000000000000000e+00 2.0000000000000000e+02
-2.5000000000000000e-01 2.5000000000000000e-01
ITEM: ATOMS id type x y 
42492 3 -12 140 
42491 3 -11 140 
42490 3 -10 140 
42489 3 -9 140 
42488 3 -8 140 
42497 3 -12 140.866 
42496 3 -11 140.866 
42495 3 -10 140.866 
42494 3 -9 140.866 
42493 3 -8 140.866 
42502 3 -12 141.732 
42501 3 -11 141.732 
42500 3 -10 141.732 
42499 3 -9 141.732 
42498 3 -8 141.732 
42507 3 -12 142.598 
42506 3 -11 142.598 
42505 3 -10 142.598 
42504 3 -9 142.598 
42503 3 -8 142.598 
42512 3 -12 143.464 
42511 3 -11 143.464 
42510 3 -10 143.464 
42509 3 -9 143.464 
42508 3 -8 143.464 
ITEM: TIMESTEP
10000
ITEM: NUMBER OF ATOMS
25
ITEM: BOX BOUNDS ff fm pp
-4.1000000000000000e+01 4.1000000000000000e+01
0.0000000000000000e+00 2.0000000000000000e+02
-2.5000000000000000e-01 2.5000000000000000e-01
ITEM: ATOMS id type x y 
42492 3 -12 139.875 
42491 3 -11 139.875 
42490 3 -10 139.875 
42489 3 -9 139.875 
42488 3 -8 139.875 
42497 3 -12 140.741 
42496 3 -11 140.741 
42495 3 -10 140.741 
42494 3 -9 140.741 
42493 3 -8 140.741 
42502 3 -12 141.607 
42501 3 -11 141.607 
42500 3 -10 141.607 
42499 3 -9 141.607 
42498 3 -8 141.607 
42507 3 -12 142.473 
42506 3 -11 142.473 
42505 3 -10 142.473 
42504 3 -9 142.473 
42503 3 -8 142.473 
42512 3 -12 143.339 
42511 3 -11 143.339 
42510 3 -10 143.339 
42509 3 -9 143.339 
42508 3 -8 143.339 
ITEM: TIMESTEP
20000
ITEM: NUMBER OF ATOMS
25
ITEM: BOX BOUNDS ff fm pp
-4.1000000000000000e+01 4.1000000000000000e+01
0.0000000000000000e+00 2.0000000000000000e+02
-2.5000000000000000e-01 2.5000000000000000e-01
ITEM: ATOMS id type x y 
42492 3 -12 139.5 
42491 3 -11 139.5 
42490 3 -10 139.5 
42489 3 -9 139.5 
42488 3 -8 139.5 
42497 3 -12 140.366 
42496 3 -11 140.366 
42495 3 -10 140.366 
42494 3 -9 140.366 
42493 3 -8 140.366 
42502 3 -12 141.232 
42501 3 -11 141.232 
42500 3 -10 141.232 
42499 3 -9 141.232 
42498 3 -8 141.232 
42507 3 -12 142.098 
42506 3 -11 142.098 
42505 3 -10 142.098 
42504 3 -9 142.098 
42503 3 -8 142.098 
42512 3 -12 142.964 
42511 3 -11 142.964 
42510 3 -10 142.964 
42509 3 -9 142.964 
42508 3 -8 142.964 
ITEM: TIMESTEP
30000
ITEM: NUMBER OF ATOMS
25
ITEM: BOX BOUNDS ff fm pp
-4.1000000000000000e+01 4.1000000000000000e+01
0.0000000000000000e+00 2.0000000000000000e+02
-2.5000000000000000e-01 2.5000000000000000e-01
ITEM: ATOMS id type x y 
42492 3 -12 138.875 
42491 3 -11 138.875 
42490 3 -10 138.875 
42489 3 -9 138.875 
42488 3 -8 138.875 
42497 3 -12 139.741 
42496 3 -11 139.741 
42495 3 -10 139.741 
42494 3 -9 139.741 
42493 3 -8 139.741 
42502 3 -12 140.607 
42501 3 -11 140.607 
42500 3 -10 140.607 
42499 3 -9 140.607 
42498 3 -8 140.607 
42507 3 -12 141.473 
42506 3 -11 141.473 
42505 3 -10 141.473 
42504 3 -9 141.473 
42503 3 -8 141.473 
42512 3 -12 142.339 
42511 3 -11 142.339 
42510 3 -10 142.339 
42509 3 -9 142.339 
42508 3 -8 142.339 
ITEM: TIMESTEP
40000
ITEM: NUMBER OF ATOMS
25
ITEM: BOX BOUNDS ff fm pp
-4.1000000000000000e+01 4.1000000000000000e+01
0.0000000000000000e+00 2.0000000000000000e+02
-2.5000000000000000e-01 2.5000000000000000e-01
ITEM: ATOMS id type x y 
42492 3 -12 138 
42491 3 -11 138 
42490 3 -10 138 
42489 3 -9 138 
42488 3 -8 138 
42497 3 -12 138.866 
42496 3 -11 138.866 
42495 3 -10 138.866 
42494 3 -9 138.866 
42493 3 -8 138.866 
42502 3 -12 139.732 
42501 3 -11 139.732 
42500 3 -10 139.732 
42499 3 -9 139.732 
42498 3 -8 139.732 
42507 3 -12 140.598 
42506 3 -11 140.598 
42505 3 -10 140.598 
42504 3 -9 140.598 
42503 3 -8 140.598 
42512 3 -12 141.464 
42511 3 -11 141.464 
42510 3 -10 141.464 
42509 3 -9 141.464 
42508 3 -8 141.464 
ITEM: TIMESTEP
50000
ITEM: NUMBER OF ATOMS
25
ITEM: BOX BOUNDS ff fm pp
-4.1000000000000000e+01 4.1000000000000000e+01
0.0000000000000000e+00 2.0000000000000000e+02
-2.5000000000000000e-01 2.5000000000000000e-01
ITEM: ATOMS id type x y 
42492 3 -12 136.875 
42491 3 -11 136.875 
42490 3 -10 136.875 
42489 3 -9 136.875 
42488 3 -8 136.875 
42497 3 -12 137.741 
42496 3 -11 137.741 
42495 3 -10 137.741 
42494 3 -9 137.741 
42493 3 -8 137.741 
42502 3 -12 138.607 
42501 3 -11 138.607 
42500 3 -10 138.607 
42499 3 -9 138.607 
42498 3 -8 138.607 
42507 3 -12 139.473 
42506 3 -11 139.473 
42505 3 -10 139.473 
42504 3 -9 139.473 
42503 3 -8 139.473 
42512 3 -12 140.339 
42511 3 -11 140.339 
42510 3 -10 140.339 
42509 3 -9 140.339 
42508 3 -8 140.339 
ITEM: TIMESTEP
60000
ITEM: NUMBER OF ATOMS
25
ITEM: BOX BOUNDS ff fm pp
-4.1000000000000000e+01 4.1000000000000000e+01
0.0000000000000000e+00 2.0000000000000000e+02
-2.5000000000000000e-01 2.5000000000000000e-01
ITEM: ATOMS id type x y 
42492 3 -12 135.5 
42491 3 -11 135.5 
42490 3 -10 135.5 
42489 3 -9 135.5 
42488 3 -8 135.5 
42497 3 -12 136.366 
42496 3 -11 136.366 
42495 3 -10 136.366 
42494 3 -9 136.366 
42493 3 -8 136.366 
42502 3 -12 137.232 
42501 3 -11 137.232 
42500 3 -10 137.232 
42499 3 -9 137.232 
42498 3 -8 137.232 
42507 3 -12 138.098 
42506 3 -11 138.098 
42505 3 -10 138.098 
42504 3 -9 138.098 
42503 3 -8 138.098 
42512 3 -12 138.964 
42511 3 -11 138.964 
42510 3 -10 138.964 
42509 3 -9 138.964 
42508 3 -8 138.964 
ITEM: TIMESTEP
70000
ITEM: NUMBER OF ATOMS
25
ITEM: BOX BOUNDS ff fm pp
-4.1000000000000000e+01 4.1000000000000000e+01
0.0000000000000000e+00 2.0000000000000000e+02
-2.5000000000000000e-01 2.5000000000000000e-01
ITEM: ATOMS id type x y 
42492 3 -12 133.875 
42491 3 -11 133.875 
42490 3 -10 133.875 
42489 3 -9 133.875 
42488 3 -8 133.875 
42497 3 -12 134.741 
42496 3 -11 134.741 
42495 3 -10 134.741 
42494 3 -9 134.741 
42493 3 -8 134.741 
42502 3 -12 135.607 
42501 3 -11 135.607 
42500 3 -10 135.607 
42499 3 -9 135.607 
42498 3 -8 135.607 
42507 3 -12 136.473 
42506 3 -11 136.473 
42505 3 -10 136.473 
42504 3 -9 136.473 
42503 3 -8 136.473 
42512 3 -12 137.339 
42511 3 -11 137.339 
42510 3 -10 137.339 
42509 3 -9 137.339 
42508 3 -8 137.339 
ITEM: TIMESTEP
80000
ITEM: NUMBER OF ATOMS
25
ITEM: BOX BOUNDS ff fm pp
-4.1000000000000000e+01 4.1000000000000000e+01
0.0000000000000000e+00 2.0000000000000000e+02
-2.5000000000000000e-01 2.5000000000000000e-01
ITEM: ATOMS id type x y 
42492 3 -12 132 
42491 3 -11 132 
42490 3 -10 132 
42489 3 -9 132 
42488 3 -8 132 
42497 3 -12 132.866 
42496 3 -11 132.866 
42495 3 -10 132.866 
42494 3 -9 132.866 
42493 3 -8 132.866 
42502 3 -12 133.732 
42501 3 -11 133.732 
42500 3 -10 133.732 
42499 3 -9 133.732 
42498 3 -8 133.732 
42507 3 -12 134.598 
42506 3 -11 134.598 
42505 3 -10 134.598 
42504 3 -9 134.598 
42503 3 -8 134.598 
42512 3 -12 135.464 
42511 3 -11 135.464 
42510 3 -10 135.464 
42509 3 -9 135.464 
42508 3 -8 135.464 
ITEM: TIMESTEP
90000
ITEM: NUMBER OF ATOMS
25
ITEM: BOX BOUNDS ff fm pp
-4.1000000000000000e+01 4.1000000000000000e+01
0.0000000000000000e+00 2.0000000000000000e+02
-2.5000000000000000e-01 2.5000000000000000e-01
ITEM: ATOMS id type x y 
42492 3 -12 129.875 
42491 3 -11 129.875 
42490 3 -10 129.875 
42489 3 -9 129.875 
42488 3 -8 129.875 
42497 3 -12 130.741 
42496 3 -11 130.741 
42495 3 -10 130.741 
42494 3 -9 130.741 
42493 3 -8 130.741 
42502 3 -12 131.607 
42501 3 -11 131.607 
42500 3 -10 131.607 
42499 3 -9 131.607 
42498 3 -8 131.607 
42507 3 -12 132.473 
42506 3 -11 132.473 
42505 3 -10 132.473 
42504 3 -9 132.473 
42503 3 -8 132.473 
42512 3 -12 133.339 
42511 3 -11 133.339 
42510 3 -10 133.339 
42509 3 -9 133.339 
42508 3 -8 133.339 
ITEM: TIMESTEP
100000
ITEM: NUMBER OF ATOMS
25
ITEM: BOX BOUNDS ff fm pp
-4.1000000000000000e+01 4.1000000000000000e+01
0.0000000000000000e+00 2.0000000000000000e+02
-2.5000000000000000e-01 2.5000000000000000e-01
ITEM: ATOMS id type x y 
42492 3 -12 127.5 
42491 3 -11 127.5 
42490 3 -10 127.5 
42489 3 -9 127.5 
42488 3 -8 127.5 
42497 3 -12 128.366 
42496 3 -11 128.366 
42495 3 -10 128.366 
42494 3 -9 128.366 
42493 3 -8 128.366 
42502 3 -12 129.232 
42501 3 -11 129.232 
42500 3 -10 129.232 
42499 3 -9 129.232 
42498 3 -8 129.232 
42507 3 -12 130.098 
42506 3 -11 130.098 
42505 3 -10 130.098 
42504 3 -9 130.098 
42503 3 -8 130.098 
42512 3 -12 130.964 
42511 3 -11 130.964 
42510 3 -10 130.964 
42509 3 -9 130.964 
42508 3 -8 130.964 
ITEM: TIMESTEP
110000
ITEM: NUMBER OF ATOMS
25
ITEM: BOX BOUNDS ff fm pp
-4.1000000000000000e+01 4.1000000000000000e+01
0.0000000000000000e+00 2.0000000000000000e+02
-2.5000000000000000e-01 2.5000000000000000e-01
ITEM: ATOMS id type x y 
42492 3 -12 124.875 
42491 3 -11 124.875 
42490 3 -10 124.875 
42489 3 -9 124.875 
42488 3 -8 124.875 
42497 3 -12 125.741 
42496 3 -11 125.741 
42495 3 -10 125.741 
42494 3 -9 125.741 
42493 3 -8 125.741 
42502 3 -12 126.607 
42501 3 -11 126.607 
42500 3 -10 126.607 
42499 3 -9 126.607 
42498 3 -8 126.607 
42507 3 -12 127.473 
42506 3 -11 127.473 
42505 3 -10 127.473 
42504 3 -9 127.473 
42503 3 -8 127.473 
42512 3 -12 128.339 
42511 3 -11 128.339 
42510 3 -10 128.339 
42509 3 -9 128.339 
42508 3 -8 128.339 
ITEM: TIMESTEP
120000
ITEM: NUMBER OF ATOMS
25
ITEM: BOX BOUNDS ff fm pp
-4.1000000000000000e+01 4.1000000000000000e+01
0.0000000000000000e+00 2.0000000000000000e+02
-2.5000000000000000e-01 2.5000000000000000e-01
ITEM: ATOMS id type x y 
42492 3 -12 122 
42491 3 -11 122 
42490 3 -10 122 
42489 3 -9 122 
42488 3 -8 122 
42497 3 -12 122.866 
42496 3 -11 122.866 
42495 3 -10 122.866 
42494 3 -9 122.866 
42493 3 -8 122.866 
42502 3 -12 123.732 
42501 3 -11 123.732 
42500 3 -10 123.732 
42499 3 -9 123.732 
42498 3 -8 123.732 
42507 3 -12 124.598 
42506 3 -11 124.598 
42505 3 -10 124.598 
42504 3 -9 124.598 
42503 3 -8 124.598 
42512 3 -12 125.464 
42511 3 -11 125.464 
42510 3 -10 125.464 
42509 3 -9 125.464 
42508 3 -8 125.464 
ITEM: TIMESTEP
130000
ITEM: NUMBER OF ATOMS
25
ITEM: BOX BOUNDS ff fm pp
-4.1000000000000000e+01 4.1000000000000000e+01
0.0000000000000000e+00 2.0000000000000000e+02
-2.5000000000000000e-01 2.5000000000000000e-01
ITEM: ATOMS id type x y 
42492 3 -12.0011 118.921 
42491 3 -11.0011 118.919 
42490 3 -10.0011 118.916 
42489 3 -9.00108 118.914 
42488 3 -8.00108 118.911 
42497 3 -11.9988 119.787 
42496 3 -10.9988 119.785 
42495 3 -9.99881 119.782 
42494 3 -8.99882 119.78 
42493 3 -7.99882 119.777 
42502 3 -11.9965 120.653 
42501 3 -10.9966 120.651 
42500 3 -9.99655 120.648 
42499 3 -8.99656 120.646 
42498 3 -7.99656 120.643 
42507 3 -11.9943 121.519 
42506 3 -10.9943 121.517 
42505 3 -9.99429 121.514 
42504 3 -8.9943 121.512 
42503 3 -7.9943 121.509 
42512 3 -11.992 122.385 
42511 3 -10.992 122.383 
42510 3 -9.99203 122.38 
42509 3 -8.99204 122.378 
42508 3 -7.99204 122.375 
ITEM: TIMESTEP
140000
ITEM: NUMBER OF ATOMS
25
ITEM: BOX BOUNDS ff fm pp
-4.1000000000000000e+01 4.1000000000000000e+01
0.0000000000000000e+00 2.0000000000000000e+02
-2.5000000000000000e-01 2.5000000000000000e-01
ITEM: ATOMS id type x y 
42492 3 -12.0123 115.802 
42491 3 -11.0123 115.796 
42490 3 -10.0124 115.789 
42489 3 -9.01238 115.783 
42488 3 -8.0124 115.777 
42497 3 -12.007 116.668 
42496 3 -11.007 116.662 
42495 3 -10.0071 116.655 
42494 3 -9.00708 116.649 
42493 3 -8.0071 116.643 
42502 3 -12.0017 117.534 
42501 3 -11.0017 117.528 
42500 3 -10.0018 117.521 
42499 3 -9.00178 117.515 
42498 3 -8.0018 117.509 
42507 3 -11.9964 118.4 
42506 3 -10.9965 118.394 
42505 3 -9.99647 118.387 
42504 3 -8.99649 118.381 
42503 3 -7.99651 118.375 
42512 3 -11.9911 119.266 
42511 3 -10.9912 119.26 
42510 3 -9.99117 119.253 
42509 3 -8.99119 119.247 
42508 3 -7.99121 119.241 
ITEM: TIMESTEP
150000
ITEM: NUMBER OF ATOMS
25
ITEM: BOX BOUNDS ff fm pp
-4.1000000000000000e+01 4.1000000000000000e+01
0.0000000000000000e+00 2.0000000000000000e+02
-2.5000000000000000e-01 2.5000000000000000e-01
ITEM: ATOMS id type x y 
42492 3 -11.9965 112.65 
42491 3 -10.9965 112.661 
42490 3 -9.9966 112.671 
42489 3 -8.99666 112.682 
42488 3 -7.99672 112.693 
42497 3 -12.0059 113.516 
42496 3 -11.006 113.527 
42495 3 -10.006 113.537 
42494 3 -9.00607 113.548 
42493 3 -8.00613 113.559 
42502 3 -12.0153 114.382 
42501 3 -11.0154 114.393 
42500 3 -10.0154 114.403 
42499 3 -9.01548 114.414 
42498 3 -8.01554 114.425 
42507 3 -12.0247 115.248 
42506 3 -11.0248 115.258 
42505 3 -10.0248 115.269 
42504 3 -9.0249 115.28 
42503 3 -8.02496 115.291 
42512 3 -12.0341 116.114 
42511 3 -11.0342 116.124 
42510 3 -10.0342 116.135 
42509 3 -9.03431 116.146 
42508 3 -8.03437 116.157 
ITEM: TIMESTEP
160000
ITEM: NUMBER OF ATOMS
25
ITEM: BOX BOUNDS ff fm pp
-4.1000000000000000e+01 4.1000000000000000e+01
0.0000000000000000e+00 2.0000000000000000e+02
-2.5000000000000000e-01 2.5000000000000000e-01
ITEM: ATOMS id type x y 
42492 3 -12.0542 109.667 
42491 3 -11.0542 109.67 
42490 3 -10.0542 109.674 
42489 3 -9.05421 109.677 
42488 3 -8.05421 109.68 
42497 3 -12.057 110.533 
42496 3 -11.057 110.536 
42495 3 -10.057 110.54 
42494 3 -9.057 110.543 
42493 3 -8.057 110.546 
42502 3 -12.0598 111.399 
42501 3 -11.0598 111.402 
42500 3 -10.0598 111.406 
42499 3 -9.05979 111.409 
42498 3 -8.05979 111.412 
42507 3 -12.0626 112.265 
42506 3 -11.0626 112.268 
42505 3 -10.0626 112.272 
42504 3 -9.06258 112.275 
42503 3 -8.06258 112.278 
42512 3 -12.0654 113.131 
42511 3 -11.0654 113.134 
42510 3 -10.0654 113.138 
42509 3 -9.06537 113.141 
42508 3 -8.06537 113.144 
ITEM: TIMESTEP
170000
ITEM: NUMBER OF ATOMS
25
ITEM: BOX BOUNDS ff fm pp
-4.1000000000000000e+01 4.1000000000000000e+01
0.0000000000000000e+00 2.0000000000000000e+02
-2.5000000000000000e-01 2.5000000000000000e-01
ITEM: ATOMS id type x y 
42492 3 -12.1693 106.775 
42491 3 -11.1694 106.757 
42490 3 -10.1696 106.739 
42489 3 -9.16976 106.721 
42488 3 -8.16992 106.703 
42497 3 -12.1538 107.641 
42496 3 -11.154 107.623 
42495 3 -10.1541 107.605 
42494 3 -9.1543 107.587 
42493 3 -8.15446 107.569 
42502 3 -12.1384 108.507 
42501 3 -11.1385 108.489 
42500 3 -10.1387 108.471 
42499 3 -9.13884 108.453 
42498 3 -8.139 108.435 
42507 3 -12.1229 109.372 
42506 3 -11.1231 109.355 
42505 3 -10.1232 109.337 
42504 3 -9.12337 109.319 
42503 3 -8.12353 109.301 
42511 3 -11.1076 110.22 
42510 3 -10.1078 110.203 
42509 3 -9.10791 110.185 
42508 3 -8.10807 110.167 
42512 3 -12.1074 110.238 
ITEM: TIMESTEP
180000
ITEM: NUMBER OF ATOMS
25
ITEM: BOX BOUNDS ff fm pp
-4.1000000000000000e+01 4.1000000000000000e+01
0.0000000000000000e+00 2.0000000000000000e+02
-2.5000000000000000e-01 2.5000000000000000e-01
ITEM: ATOMS id type x y 
42492 3 -12.2537 103.855 
42491 3 -11.2537 103.847 
42490 3 -10.2538 103.84 
42489 3 -9.2538 103.832 
42488 3 -8.25383 103.825 
42497 3 -12.2472 104.721 
42496 3 -11.2472 104.713 
42495 3 -10.2473 104.706 
42494 3 -9.24728 104.698 
42493 3 -8.24731 104.691 
42502 3 -12.2407 105.587 
42501 3 -11.2407 105.579 
42500 3 -10.2407 105.572 
42499 3 -9.24076 105.564 
42498 3 -8.24079 105.557 
42507 3 -12.2342 106.453 
42506 3 -11.2342 106.445 
42505 3 -10.2342 106.438 
42504 3 -9.23424 106.43 
42503 3 -8.23427 106.423 
42512 3 -12.2276 107.319 
42511 3 -11.2277 107.311 
42510 3 -10.2277 107.304 
42509 3 -9.22772 107.296 
42508 3 -8.22775 107.289 
ITEM: TIMESTEP
190000
ITEM: NUMBER OF ATOMS
25
ITEM: BOX BOUNDS ff fm pp
-4.1000000000000000e+01 4.1000000000000000e+01
0.0000000000000000e+00 2.0000000000000000e+02
-2.5000000000000000e-01 2.5000000000000000e-01
ITEM: ATOMS id type x y 
42492 3 -12.3248 100.916 
42491 3 -11.325 100.937 
42490 3 -10.3252 100.958 
42489 3 -9.32541 100.978 
42488 3 -8.32563 100.999 
42497 3 -12.3427 101.782 
42496 3 -11.3429 101.803 
42495 3 -10.3431 101.824 
42494 3 -9.34332 101.844 
42493 3 -8.34353 101.865 
42502 3 -12.3606 102.648 
42501 3 -11.3608 102.669 
42500 3 -10.361 102.689 
42499 3 -9.36123 102.71 
42498 3 -8.36144 102.731 
42507 3 -12.3785 103.514 
42506 3 -11.3787 103.534 
42505 3 -10.3789 103.555 
42504 3 -9.37914 103.576 
42503 3 -8.37935 103.597 
42512 3 -12.3964 104.38 
42511 3 -11.3966 104.4 
42510 3 -10.3968 104.421 
42509 3 -9.39705 104.442 
42508 3 -8.39726 104.462 
ITEM: TIMESTEP
200000
ITEM: NUMBER OF ATOMS
25
ITEM: BOX BOUNDS ff fm pp
-4.1000000000000000e+01 4.1000000000000000e+01
0.0000000000000000e+00 2.0000000000000000e+02
-2.5000000000000000e-01 2.5000000000000000e-01
ITEM: ATOMS id type x y 
42492 3 -12.4941 98.0375 
42491 3 -11.4941 98.0447 
42490 3 -10.4941 98.0519 
42489 3 -9.49414 98.059 
42488 3 -8.49416 98.0662 
42497 3 -12.5003 98.9035 
42496 3 -11.5003 98.9107 
42495 3 -10.5003 98.9178 
42494 3 -9.50034 98.925 
42493 3 -8.50036 98.9321 
42502 3 -12.5065 99.7695 
42501 3 -11.5065 99.7766 
42500 3 -10.5065 99.7838 
42499 3 -9.50654 99.791 
42498 3 -8.50656 99.7981 
42507 3 -12.5127 100.635 
42506 3 -11.5127 100.643 
42505 3 -10.5127 100.65 
42504 3 -9.51274 100.657 
42503 3 -8.51276 100.664 
42512 3 -12.5189 101.501 
42511 3 -11.5189 101.509 
42510 3 -10.5189 101.516 
42509 3 -9.51894 101.523 
42508 3 -8.51896 101.53 
ITEM: TIMESTEP
210000
ITEM: NUMBER OF ATOMS
25
ITEM: BOX BOUNDS ff fm pp
-4.1000000000000000e+01 4.1000000000000000e+01
0.0000000000000000e+00 2.0000000000000000e+02
-2.5000000000000000e-01 2.5000000000000000e-01
ITEM: ATOMS id type x y 
42492 3 -12.7085 95.1691 
42491 3 -11.7087 95.1524 
42490 3 -10.7088 95.1356 
42489 3 -9.70895 95.1189 
42488 3 -8.70909 95.1022 
42497 3 -12.694 96.035 
42496 3 -11.6942 96.0183 
42495 3 -10.6943 96.0015 
42494 3 -9.69445 95.9848 
42493 3 -8.69459 95.968 
42502 3 -12.6795 96.9009 
42501 3 -11.6797 96.8841 
42500 3 -10.6798 96.8674 
42499 3 -9.67995 96.8507 
42498 3 -8.68009 96.8339 
42507 3 -12.665 97.7668 
42506 3 -11.6652 97.75 
42505 3 -10.6653 97.7333 
42504 3 -9.66546 97.7165 
42503 3 -8.6656 97.6998 
42512 3 -12.6505 98.6326 
42511 3 -11.6507 98.6159 
42510 3 -10.6508 98.5992 
42509 3 -9.65096 98.5824 
42508 3 -8.6511 98.5657 
ITEM: TIMESTEP
220000
ITEM: NUMBER OF ATOMS
25
ITEM: BOX BOUNDS ff fm pp
-4.1000000000000000e+01 4.1000000000000000e+01
0.0000000000000000e+00 2.0000000000000000e+02
-2.5000000000000000e-01 2.5000000000000000e-01
ITEM: ATOMS id type x y 
42492 3 -12.8816 92.2079 
42491 3 -11.8816 92.2088 
42490 3 -10.8816 92.2097 
42489 3 -9.8816 92.2106 
42488 3 -8.8816 92.2115 
42497 3 -12.8824 93.0739 
42496 3 -11.8824 93.0748 
42495 3 -10.8824 93.0757 
42494 3 -9.88239 93.0766 
42493 3 -8.88239 93.0775 
42502 3 -12.8832 93.9399 
42501 3 -11.8832 93.9408 
42500 3 -10.8832 93.9417 
42499 3 -9.88317 93.9426 
42498 3 -8.88317 93.9435 
42507 3 -12.884 94.8059 
42506 3 -11.884 94.8068 
42505 3 -10.884 94.8077 
42504 3 -9.88396 94.8086 
42503 3 -8.88396 94.8095 
42512 3 -12.8847 95.6719 
42511 3 -11.8847 95.6728 
42510 3 -10.8847 95.6737 
42509 3 -9.88475 95.6746 
42508 3 -8.88475 95.6755 
ITEM: TIMESTEP
230000
ITEM: NUMBER OF ATOMS
25
ITEM: BOX BOUNDS ff fm pp
-4.1000000000000000e+01 4.1000000000000000e+01
0.0000000000000000e+00 2.0000000000000000e+02
-2.5000000000000000e-01 2.5000000000000000e-01
ITEM: ATOMS id type x y 
42492 3 -13.0969 89.2244 
42491 3 -12.097 89.241 
42490 3 -11.0972 89.2576 
42489 3 -10.0973 89.2742 
42488 3 -9.09744 89.2909 
42497 3 -13.1113 90.0903 
42496 3 -12.1114 90.1069 
42495 3 -11.1115 90.1235 
42494 3 -10.1117 90.1401 
42493 3 -9.11182 90.1567 
42502 3 -13.1257 90.9562 
42501 3 -12.1258 90.9728 
42500 3 -11.1259 90.9894 
42499 3 -10.1261 91.006 
42498 3 -9.12621 91.0226 
42507 3 -13.14 91.8221 
42506 3 -12.1402 91.8387 
42505 3 -11.1403 91.8553 
42504 3 -10.1405 91.8719 
42503 3 -9.14059 91.8885 
42512 3 -13.1544 92.6879 
42511 3 -12.1546 92.7045 
42510 3 -11.1547 92.7212 
42509 3 -10.1548 92.7378 
42508 3 -9.15497 92.7544 
ITEM: TIMESTEP
240000
ITEM: NUMBER OF ATOMS
25
ITEM: BOX BOUNDS ff fm pp
-4.1000000000000000e+01 4.1000000000000000e+01
0.0000000000000000e+00 2.0000000000000000e+02
-2.5000000000000000e-01 2.5000000000000000e-01
ITEM: ATOMS id type x y 
42492 3 -13.4042 86.2661 
42491 3 -12.4042 86.2667 
42490 3 -11.4042 86.2674 
42489 3 -10.4042 86.2681 
42488 3 -9.40423 86.2688 
42497 3 -13.4048 87.1321 
42496 3 -12.4048 87.1327 
42495 3 -11.4048 87.1334 
42494 3 -10.4048 87.1341 
42493 3 -9.40483 87.1348 
42502 3 -13.4054 87.9981 
42501 3 -12.4054 87.9987 
42500 3 -11.4054 87.9994 
42499 3 -10.4054 88.0001 
42498 3 -9.40542 88.0008 
42507 3 -13.406 88.8641 
42506 3 -12.406 88.8647 
42505 3 -11.406 88.8654 
42504 3 -10.406 88.8661 
42503 3 -9.40602 88.8668 
42512 3 -13.4066 89.7301 
42511 3 -12.4066 89.7307 
42510 3 -11.4066 89.7314 
42509 3 -10.4066 89.7321 
42508 3 -9.40661 89.7328 
ITEM: TIMESTEP
250000
ITEM: NUMBER OF ATOMS
25
ITEM: BOX BOUNDS ff fm pp
-4.1000000000000000e+01 4.1000000000000000e+01
0.0000000000000000e+00 2.0000000000000000e+02
-2.5000000000000000e-01 2.5000000000000000e-01
ITEM: ATOMS id type x y 
42488 3 -9.74562 83.1788 
42492 3 -13.7455 83.2148 
42491 3 -12.7455 83.2058 
42490 3 -11.7455 83.1968 
42489 3 -10.7456 83.1878 
42497 3 -13.7377 84.0807 
42496 3 -12.7377 84.0717 
42495 3 -11.7378 84.0627 
42494 3 -10.7378 84.0537 
42493 3 -9.73784 84.0447 
42502 3 -13.7299 84.9467 
42501 3 -12.7299 84.9377 
42500 3 -11.73 84.9287 
42499 3 -10.73 84.9197 
42498 3 -9.73005 84.9107 
42507 3 -13.7221 85.8126 
42506 3 -12.7221 85.8037 
42505 3 -11.7222 85.7947 
42504 3 -10.7222 85.7857 
42503 3 -9.72226 85.7767 
42512 3 -13.7143 86.6786 
42511 3 -12.7144 86.6696 
42510 3 -11.7144 86.6606 
42509 3 -10.7144 86.6516 
42508 3 -9.71447 86.6426 
ITEM: TIMESTEP
260000
ITEM: NUMBER OF ATOMS
25
ITEM: BOX BOUNDS ff fm pp
-4.1000000000000000e+01 4.1000000000000000e+01
0.0000000000000000e+00 2.0000000000000000e+02
-2.5000000000000000e-01 2.5000000000000000e-01
ITEM: ATOMS id type x y 
42492 3 -14.0802 80.0107 
42491 3 -13.0802 80.0139 
42490 3 -12.0803 80.0171 
42489 3 -11.0803 80.0203 
42488 3 -10.0803 80.0235 
42497 3 -14.083 80.8767 
42496 3 -13.083 80.8799 
42495 3 -12.083 80.8831 
42494 3 -11.083 80.8863 
42493 3 -10.083 80.8895 
42502 3 -14.0858 81.7427 
42501 3 -13.0858 81.7459 
42500 3 -12.0858 81.7491 
42499 3 -11.0858 81.7523 
42498 3 -10.0858 81.7555 
42507 3 -14.0886 82.6087 
42506 3 -13.0886 82.6119 
42505 3 -12.0886 82.6151 
42504 3 -11.0886 82.6183 
42503 3 -10.0886 82.6215 
42512 3 -14.0913 83.4747 
42511 3 -13.0913 83.4779 
42510 3 -12.0913 83.4811 
42509 3 -11.0913 83.4843 
42508 3 -10.0913 83.4875 
ITEM: TIMESTEP
270000
ITEM: NUMBER OF ATOMS
25
ITEM: BOX BOUNDS ff fm pp
-4.1000000000000000e+01 4.1000000000000000e+01
0.0000000000000000e+00 2.0000000000000000e+02
-2.5000000000000000e-01 2.5000000000000000e-01
ITEM: ATOMS id type x y 
42492 3 -14.4525 76.7049 
42491 3 -13.4525 76.7155 
42490 3 -12.4526 76.726 
42489 3 -11.4526 76.7365 
42488 3 -10.4527 76.747 
42497 3 -14.4616 77.5709 
42496 3 -13.4616 77.5814 
42495 3 -12.4617 77.5919 
42494 3 -11.4618 77.6025 
42493 3 -10.4618 77.613 
42502 3 -14.4707 78.4368 
42501 3 -13.4708 78.4474 
42500 3 -12.4708 78.4579 
42499 3 -11.4709 78.4684 
42498 3 -10.4709 78.4789 
42507 3 -14.4798 79.3028 
42506 3 -13.4799 79.3133 
42505 3 -12.4799 79.3238 
42504 3 -11.48 79.3344 
42503 3 -10.48 79.3449 
42512 3 -14.4889 80.1687 
42511 3 -13.489 80.1793 
42510 3 -12.4891 80.1898 
42509 3 -11.4891 80.2003 
42508 3 -10.4892 80.2108 
ITEM: TIMESTEP
280000
ITEM: NUMBER OF ATOMS
25
ITEM: BOX BOUNDS ff fm pp
-4.1000000000000000e+01 4.1000000000000000e+01
0.0000000000000000e+00 2.0000000000000000e+02
-2.5000000000000000e-01 2.5000000000000000e-01
ITEM: ATOMS id type x y 
42492 3 -14.8859 73.3342 
42491 3 -13.8859 73.3321 
42490 3 -12.8859 73.3301 
42489 3 -11.8859 73.328 
42488 3 -10.8859 73.3259 
42497 3 -14.8841 74.2002 
42496 3 -13.8841 74.1981 
42495 3 -12.8841 74.196 
42494 3 -11.8841 74.194 
42493 3 -10.8841 74.1919 
42502 3 -14.8823 75.0662 
42501 3 -13.8823 75.0641 
42500 3 -12.8823 75.062 
42499 3 -11.8823 75.06 
42498 3 -10.8823 75.0579 
42507 3 -14.8804 75.9322 
42506 3 -13.8804 75.9301 
42505 3 -12.8804 75.928 
42504 3 -11.8804 75.926 
42503 3 -10.8805 75.9239 
42512 3 -14.8786 76.7982 
42511 3 -13.8786 76.7961 
42510 3 -12.8786 76.794 
42509 3 -11.8786 76.792 
42508 3 -10.8786 76.7899 
ITEM: TIMESTEP
290000
ITEM: NUMBER OF ATOMS
25
ITEM: BOX BOUNDS ff fm pp
-4.1000000000000000e+01 4.1000000000000000e+01
0.0000000000000000e+00 2.0000000000000000e+02
-2.5000000000000000e-01 2.5000000000000000e-01
ITEM: ATOMS id type x y 
42492 3 -15.3414 69.8275 
42491 3 -14.3414 69.8221 
42490 3 -13.3414 69.8166 
42489 3 -12.3414 69.8111 
42488 3 -11.3414 69.8056 
42497 3 -15.3366 70.6935 
42496 3 -14.3366 70.688 
42495 3 -13.3367 70.6826 
42494 3 -12.3367 70.6771 
42493 3 -11.3367 70.6716 
42502 3 -15.3319 71.5595 
42501 3 -14.3319 71.554 
42500 3 -13.3319 71.5485 
42499 3 -12.3319 71.5431 
42498 3 -11.3319 71.5376 
42507 3 -15.3271 72.4255 
42506 3 -14.3271 72.42 
42505 3 -13.3272 72.4145 
42504 3 -12.3272 72.409 
42503 3 -11.3272 72.4036 
42512 3 -15.3224 73.2915 
42511 3 -14.3224 73.286 
42510 3 -13.3224 73.2805 
42509 3 -12.3224 73.275 
42508 3 -11.3224 73.2695 
ITEM: TIMESTEP
300000
ITEM: NUMBER OF ATOMS
25
ITEM: BOX BOUNDS ff fm pp
-4.1000000000000000e+01 4.1000000000000000e+01
0.0000000000000000e+00 2.0000000000000000e+02
-2.5000000000000000e-01 2.5000000000000000e-01
ITEM: ATOMS id type x y 
42492 3 -15.8209 66.1886 
42491 3 -14.8209 66.1899 
42490 3 -13.8209 66.1912 
42489 3 -12.8209 66.1926 
42488 3 -11.8209 66.1939 
42497 3 -15.822 67.0546 
42496 3 -14.822 67.0559 
42495 3 -13.822 67.0572 
42494 3 -12.822 67.0586 
42493 3 -11.822 67.0599 
42502 3 -15.8232 67.9206 
42501 3 -14.8232 67.9219 
42500 3 -13.8232 67.9232 
42499 3 -12.8232 67.9246 
42498 3 -11.8232 67.9259 
42507 3 -15.8243 68.7866 
42506 3 -14.8243 68.7879 
42505 3 -13.8243 68.7892 
42504 3 -12.8243 68.7905 
42503 3 -11.8243 68.7919 
42512 3 -15.8255 69.6526 
42511 3 -14.8255 69.6539 
42510 3 -13.8255 69.6552 
42509 3 -12.8255 69.6565 
42508 3 -11.8255 69.6579 
ITEM: TIMESTEP
310000
ITEM: NUMBER OF ATOMS
25
ITEM: BOX BOUNDS ff fm pp
-4.1000000000000000e+01 4.1000000000000000e+01
0.0000000000000000e+00 2.0000000000000000e+02
-2.5000000000000000e-01 2.5000000000000000e-01
ITEM: ATOMS id type x y 
42492 3 -16.3354 62.443 
42491 3 -15.3354 62.4512 
42490 3 -14.3354 62.4594 
42489 3 -13.3355 62.4676 
42488 3 -12.3355 62.4758 
42497 3 -16.3425 63.309 
42496 3 -15.3425 63.3172 
42495 3 -14.3425 63.3254 
42494 3 -13.3426 63.3336 
42493 3 -12.3426 63.3418 
42502 3 -16.3496 64.1749 
42501 3 -15.3496 64.1831 
42500 3 -14.3496 64.1913 
42499 3 -13.3497 64.1995 
42498 3 -12.3497 64.2077 
42507 3 -16.3567 65.0409 
42506 3 -15.3567 65.0491 
42505 3 -14.3567 65.0573 
42504 3 -13.3568 65.0655 
42503 3 -12.3568 65.0737 
42512 3 -16.3638 65.9069 
42511 3 -15.3638 65.9151 
42510 3 -14.3638 65.9233 
42509 3 -13.3639 65.9315 
42508 3 -12.3639 65.9397 
ITEM: TIMESTEP
320000
ITEM: NUMBER OF ATOMS
25
ITEM: BOX BOUNDS ff fm pp
-4.1000000000000000e+01 4.1000000000000000e+01
0.0000000000000000e+00 2.0000000000000000e+02
-2.5000000000000000e-01 2.5000000000000000e-01
ITEM: ATOMS id type x y 
42492 3 -16.907 58.6232 
42491 3 -15.907 58.6201 
42490 3 -14.907 58.617 
42489 3 -13.907 58.6139 
42488 3 -12.907 58.6108 
42497 3 -16.9043 59.4892 
42496 3 -15.9043 59.4861 
42495 3 -14.9043 59.483 
42494 3 -13.9043 59.4799 
42493 3 -12.9043 59.4768 
42502 3 -16.9016 60.3552 
42501 3 -15.9016 60.3521 
42500 3 -14.9016 60.349 
42499 3 -13.9016 60.3459 
42498 3 -12.9016 60.3428 
42507 3 -16.8989 61.2212 
42506 3 -15.8989 61.2181 
42505 3 -14.8989 61.215 
42504 3 -13.8989 61.2119 
42503 3 -12.8989 61.2088 
42512 3 -16.8962 62.0872 
42511 3 -15.8962 62.0841 
42510 3 -14.8962 62.081 
42509 3 -13.8963 62.0779 
42508 3 -12.8963 62.0748 
ITEM: TIMESTEP
330000
ITEM: NUMBER OF ATOMS
25
ITEM: BOX BOUNDS ff fm pp
-4.1000000000000000e+01 4.1000000000000000e+01
0.0000000000000000e+00 2.0000000000000000e+02
-2.5000000000000000e-01 2.5000000000000000e-01
ITEM: ATOMS id type x y 
42492 3 -17.4925 54.6985 
42491 3 -16.4925 54.6931 
42490 3 -15.4925 54.6877 
42489 3 -14.4926 54.6823 
42488 3 -13.4926 54.6769 
42497 3 -17.4878 55.5645 
42496 3 -16.4878 55.5591 
42495 3 -15.4879 55.5537 
42494 3 -14.4879 55.5483 
42493 3 -13.4879 55.5429 
42502 3 -17.4831 56.4305 
42501 3 -16.4832 56.4251 
42500 3 -15.4832 56.4197 
42499 3 -14.4832 56.4143 
42498 3 -13.4832 56.4089 
42507 3 -17.4785 57.2965 
42506 3 -16.4785 57.2911 
42505 3 -15.4785 57.2857 
42504 3 -14.4785 57.2803 
42503 3 -13.4785 57.2749 
42512 3 -17.4738 58.1625 
42511 3 -16.4738 58.1571 
42510 3 -15.4738 58.1517 
42509 3 -14.4738 58.1463 
42508 3 -13.4738 58.1409 
ITEM: TIMESTEP
340000
ITEM: NUMBER OF ATOMS
25
ITEM: BOX BOUNDS ff fm pp
-4.1000000000000000e+01 4.1000000000000000e+01
0.0000000000000000e+00 2.0125548865838670e+02
-2.5000000000000000e-01 2.5000000000000000e-01
ITEM: ATOMS id type x y 
42492 3 -18.0703 50.6579 
42491 3 -17.0703 50.6663 
42490 3 -16.0703 50.6748 
42489 3 -15.0704 50.6832 
42488 3 -14.0704 50.6916 
42497 3 -18.0776 51.5239 
42496 3 -17.0776 51.5323 
42495 3 -16.0776 51.5407 
42494 3 -15.0777 51.5491 
42493 3 -14.0777 51.5575 
42502 3 -18.0848 52.3899 
42501 3 -17.0849 52.3983 
42500 3 -16.0849 52.4067 
42499 3 -15.0849 52.4151 
42498 3 -14.085 52.4235 
42507 3 -18.0921 53.2558 
42506 3 -17.0922 53.2643 
42505 3 -16.0922 53.2727 
42504 3 -15.0922 53.2811 
42503 3 -14.0923 53.2895 
42512 3 -18.0994 54.1218 
42511 3 -17.0994 54.1302 
42510 3 -16.0995 54.1386 
42509 3 -15.0995 54.147 
42508 3 -14.0995 54.1555 
ITEM: TIMESTEP
350000
ITEM: NUMBER OF ATOMS
25
ITEM: BOX BOUNDS ff fm pp
-4.1000000000000000e+01 4.1000000000000000e+01
0.0000000000000000e+00 2.0232753628064850e+02
-2.5000000000000000e-01 2.5000000000000000e-01
ITEM: ATOMS id type x y 
42492 3 -18.7009 46.5753 
42491 3 -17.7009 46.5787 
42490 3 -16.7009 46.5821 
42489 3 -15.7009 46.5855 
42488 3 -14.7009 46.5889 
42497 3 -18.7038 47.4413 
42496 3 -17.7038 47.4447 
42495 3 -16.7038 47.4481 
42494 3 -15.7038 47.4515 
42493 3 -14.7039 47.4549 
42502 3 -18.7068 48.3073 
42501 3 -17.7068 48.3107 
42500 3 -16.7068 48.3141 
42499 3 -15.7068 48.3175 
42498 3 -14.7068 48.3209 
42507 3 -18.7097 49.1733 
42506 3 -17.7097 49.1767 
42505 3 -16.7097 49.1801 
42504 3 -15.7097 49.1835 
42503 3 -14.7097 49.1869 
42512 3 -18.7126 50.0393 
42511 3 -17.7127 50.0427 
42510 3 -16.7127 50.0461 
42509 3 -15.7127 50.0495 
42508 3 -14.7127 50.0529 
ITEM: TIMESTEP
360000