ITEM: TIMESTEP
0
ITEM: NUMBER OF ATOMS
15
ITEM: BOX BOUNDS ff fm pp
-4.1000000000000000e+01 4.1000000000000000e+01
0.0000000000000000e+00 2.0000000000000000e+02
-2.5000000000000000e-01 2.5000000000000000e-01
ITEM: ATOMS id type x y 
42524 6 -0.5 158.71 
42526 6 -1 159.576 
42529 6 -1.5 160.442 
42530 6 -0.5 160.442 
42533 6 -2 161.308 
42534 6 -1 161.308 
42523 6 0 157.844 
42525 6 0.5 158.71 
42527 6 0 159.576 
42528 6 1 159.576 
42531 6 0.5 160.442 
42532 6 1.5 160.442 
42535 6 0 161.308 
42536 6 1 161.308 
42537 6 2 161.308 
ITEM: TIMESTEP
10000
ITEM: NUMBER OF ATOMS
15
ITEM: BOX BOUNDS ff fm pp
-4.1000000000000000e+01 4.1000000000000000e+01
0.0000000000000000e+00 2.0000000000000000e+02
-2.5000000000000000e-01 2.5000000000000000e-01
ITEM: ATOMS id type x y 
42523 6 -1.54185e-17 157.728 
42524 6 -0.5 158.594 
42526 6 -1 159.46 
42527 6 -1.54185e-17 159.46 
42529 6 -1.5 160.326 
42530 6 -0.5 160.326 
42533 6 -2 161.192 
42534 6 -1 161.192 
42535 6 -1.54185e-17 161.192 
42525 6 0.5 158.594 
42528 6 1 159.46 
42531 6 0.5 160.326 
42532 6 1.5 160.326 
42536 6 1 161.192 
42537 6 2 161.192 
ITEM: TIMESTEP
20000
ITEM: NUMBER OF ATOMS
15
ITEM: BOX BOUNDS ff fm pp
-4.1000000000000000e+01 4.1000000000000000e+01
0.0000000000000000e+00 2.0000000000000000e+02
-2.5000000000000000e-01 2.5000000000000000e-01
ITEM: ATOMS id type x y 
42523 6 -6.15247e-17 157.365 
42524 6 -0.5 158.231 
42526 6 -1 159.097 
42527 6 -6.15247e-17 159.097 
42529 6 -1.5 159.963 
42530 6 -0.5 159.963 
42533 6 -2 160.829 
42534 6 -1 160.829 
42535 6 -6.15247e-17 160.829 
42525 6 0.5 158.231 
42528 6 1 159.097 
42531 6 0.5 159.963 
42532 6 1.5 159.963 
42536 6 1 160.829 
42537 6 2 160.829 
ITEM: TIMESTEP
30000
ITEM: NUMBER OF ATOMS
15
ITEM: BOX BOUNDS ff fm pp
-4.1000000000000000e+01 4.1000000000000000e+01
0.0000000000000000e+00 2.0000000000000000e+02
-2.5000000000000000e-01 2.5000000000000000e-01
ITEM: ATOMS id type x y 
42523 6 -1.38243e-16 156.751 
42524 6 -0.5 157.617 
42526 6 -1 158.483 
42527 6 -1.38243e-16 158.483 
42529 6 -1.5 159.349 
42530 6 -0.5 159.349 
42533 6 -2 160.215 
42534 6 -1 160.215 
42535 6 -1.38243e-16 160.215 
42525 6 0.5 157.617 
42528 6 1 158.483 
42531 6 0.5 159.349 
42532 6 1.5 159.349 
42536 6 1 160.215 
42537 6 2 160.215 
ITEM: TIMESTEP
40000
ITEM: NUMBER OF ATOMS
15
ITEM: BOX BOUNDS ff fm pp
-4.1000000000000000e+01 4.1000000000000000e+01
0.0000000000000000e+00 2.0000000000000000e+02
-2.5000000000000000e-01 2.5000000000000000e-01
ITEM: ATOMS id type x y 
42523 6 -2.45572e-16 155.887 
42524 6 -0.5 156.753 
42526 6 -1 157.619 
42527 6 -2.45572e-16 157.619 
42529 6 -1.5 158.485 
42530 6 -0.5 158.485 
42533 6 -2 159.351 
42534 6 -1 159.351 
42535 6 -2.45572e-16 159.351 
42525 6 0.5 156.753 
42528 6 1 157.619 
42531 6 0.5 158.485 
42532 6 1.5 158.485 
42536 6 1 159.351 
42537 6 2 159.351 
ITEM: TIMESTEP
50000
ITEM: NUMBER OF ATOMS
15
ITEM: BOX BOUNDS ff fm pp
-4.1000000000000000e+01 4.1000000000000000e+01
0.0000000000000000e+00 2.0000000000000000e+02
-2.5000000000000000e-01 2.5000000000000000e-01
ITEM: ATOMS id type x y 
42523 6 -3.83514e-16 154.773 
42524 6 -0.5 155.639 
42526 6 -1 156.505 
42527 6 -3.83514e-16 156.505 
42529 6 -1.5 157.371 
42530 6 -0.5 157.371 
42533 6 -2 158.237 
42534 6 -1 158.237 
42535 6 -3.83514e-16 158.237 
42525 6 0.5 155.639 
42528 6 1 156.505 
42531 6 0.5 157.371 
42532 6 1.5 157.371 
42536 6 1 158.237 
42537 6 2 158.237 
ITEM: TIMESTEP
60000
ITEM: NUMBER OF ATOMS
15
ITEM: BOX BOUNDS ff fm pp
-4.1000000000000000e+01 4.1000000000000000e+01
0.0000000000000000e+00 2.0000000000000000e+02
-2.5000000000000000e-01 2.5000000000000000e-01
ITEM: ATOMS id type x y 
42523 6 -5.52066e-16 153.409 
42524 6 -0.5 154.275 
42526 6 -1 155.141 
42527 6 -5.52066e-16 155.141 
42529 6 -1.5 156.007 
42530 6 -0.5 156.007 
42533 6 -2 156.873 
42534 6 -1 156.873 
42535 6 -5.52066e-16 156.873 
42525 6 0.5 154.275 
42528 6 1 155.141 
42531 6 0.5 156.007 
42532 6 1.5 156.007 
42536 6 1 156.873 
42537 6 2 156.873 
ITEM: TIMESTEP
70000
ITEM: NUMBER OF ATOMS
15
ITEM: BOX BOUNDS ff fm pp
-4.1000000000000000e+01 4.1000000000000000e+01
0.0000000000000000e+00 2.0000000000000000e+02
-2.5000000000000000e-01 2.5000000000000000e-01
ITEM: ATOMS id type x y 
42523 6 -7.51228e-16 151.795 
42524 6 -0.5 152.661 
42526 6 -1 153.527 
42527 6 -7.51228e-16 153.527 
42529 6 -1.5 154.393 
42530 6 -0.5 154.393 
42533 6 -2 155.259 
42534 6 -1 155.259 
42535 6 -7.51228e-16 155.259 
42525 6 0.5 152.661 
42528 6 1 153.527 
42531 6 0.5 154.393 
42532 6 1.5 154.393 
42536 6 1 155.259 
42537 6 2 155.259 
ITEM: TIMESTEP
80000
ITEM: NUMBER OF ATOMS
15
ITEM: BOX BOUNDS ff fm pp
-4.1000000000000000e+01 4.1000000000000000e+01
0.0000000000000000e+00 2.0000000000000000e+02
-2.5000000000000000e-01 2.5000000000000000e-01
ITEM: ATOMS id type x y 
42523 6 -9.81003e-16 149.932 
42524 6 -0.5 150.798 
42526 6 -1 151.664 
42527 6 -9.81003e-16 151.664 
42529 6 -1.5 152.53 
42530 6 -0.5 152.53 
42533 6 -2 153.396 
42534 6 -1 153.396 
42535 6 -9.81003e-16 153.396 
42525 6 0.5 150.798 
42528 6 1 151.664 
42531 6 0.5 152.53 
42532 6 1.5 152.53 
42536 6 1 153.396 
42537 6 2 153.396 
ITEM: TIMESTEP
90000
ITEM: NUMBER OF ATOMS
15
ITEM: BOX BOUNDS ff fm pp
-4.1000000000000000e+01 4.1000000000000000e+01
0.0000000000000000e+00 2.0000000000000000e+02
-2.5000000000000000e-01 2.5000000000000000e-01
ITEM: ATOMS id type x y 
42535 6 -1.24139e-15 151.282 
42534 6 -1 151.282 
42533 6 -2 151.282 
42523 6 -1.24139e-15 147.818 
42524 6 -0.5 148.684 
42526 6 -1 149.55 
42527 6 -1.24139e-15 149.55 
42529 6 -1.5 150.416 
42530 6 -0.5 150.416 
42537 6 2 151.282 
42536 6 1 151.282 
42525 6 0.5 148.684 
42528 6 1 149.55 
42531 6 0.5 150.416 
42532 6 1.5 150.416 
ITEM: TIMESTEP
100000
ITEM: NUMBER OF ATOMS
15
ITEM: BOX BOUNDS ff fm pp
-4.1000000000000000e+01 4.1000000000000000e+01
0.0000000000000000e+00 2.0000000000000000e+02
-2.5000000000000000e-01 2.5000000000000000e-01
ITEM: ATOMS id type x y 
42523 6 -1.53301e-15 145.454 
42524 6 -0.5 146.32 
42526 6 -1 147.186 
42527 6 -1.53254e-15 147.186 
42529 6 -1.5 148.052 
42530 6 -0.5 148.052 
42533 6 -2 148.918 
42534 6 -1 148.918 
42535 6 -1.53208e-15 148.918 
42525 6 0.5 146.32 
42528 6 1 147.186 
42531 6 0.5 148.052 
42532 6 1.5 148.052 
42536 6 1 148.918 
42537 6 2 148.918 
ITEM: TIMESTEP
110000
ITEM: NUMBER OF ATOMS
15
ITEM: BOX BOUNDS ff fm pp
-4.1000000000000000e+01 4.1000000000000000e+01
0.0000000000000000e+00 2.0000000000000000e+02
-2.5000000000000000e-01 2.5000000000000000e-01
ITEM: ATOMS id type x y 
42523 6 -1.85526e-15 142.84 
42524 6 -0.5 143.706 
42526 6 -1 144.572 
42527 6 -1.85432e-15 144.572 
42529 6 -1.5 145.438 
42530 6 -0.5 145.438 
42533 6 -2 146.304 
42534 6 -1 146.304 
42535 6 -1.85338e-15 146.304 
42525 6 0.5 143.706 
42528 6 1 144.572 
42531 6 0.5 145.438 
42532 6 1.5 145.438 
42536 6 1 146.304 
42537 6 2 146.304 
ITEM: TIMESTEP
120000
ITEM: NUMBER OF ATOMS
15
ITEM: BOX BOUNDS ff fm pp
-4.1000000000000000e+01 4.1000000000000000e+01
0.0000000000000000e+00 2.0000000000000000e+02
-2.5000000000000000e-01 2.5000000000000000e-01
ITEM: ATOMS id type x y 
42523 6 -2.2119e-15 139.976 
42524 6 -0.5 140.842 
42526 6 -1 141.708 
42527 6 -2.20766e-15 141.708 
42529 6 -1.5 142.574 
42530 6 -0.5 142.574 
42533 6 -2 143.44 
42534 6 -1 143.44 
42535 6 -2.20341e-15 143.44 
42525 6 0.5 140.842 
42528 6 1 141.708 
42531 6 0.5 142.574 
42532 6 1.5 142.574 
42536 6 1 143.44 
42537 6 2 143.44 
ITEM: TIMESTEP
130000
ITEM: NUMBER OF ATOMS
15
ITEM: BOX BOUNDS ff fm pp
-4.1000000000000000e+01 4.1000000000000000e+01
0.0000000000000000e+00 2.0000000000000000e+02
-2.5000000000000000e-01 2.5000000000000000e-01
ITEM: ATOMS id type x y 
42535 6 -2.57604e-15 140.327 
42523 6 -2.61519e-15 136.863 
42524 6 -0.5 137.729 
42526 6 -1 138.595 
42527 6 -2.59561e-15 138.595 
42529 6 -1.5 139.461 
42530 6 -0.5 139.461 
42533 6 -2 140.327 
42534 6 -1 140.327 
42537 6 2 140.327 
42525 6 0.5 137.729 
42528 6 1 138.595 
42531 6 0.5 139.461 
42532 6 1.5 139.461 
42536 6 1 140.327 
ITEM: TIMESTEP
140000
ITEM: NUMBER OF ATOMS
15
ITEM: BOX BOUNDS ff fm pp
-4.1000000000000000e+01 4.1000000000000000e+01
0.0000000000000000e+00 2.0000000000000000e+02
-2.5000000000000000e-01 2.5000000000000000e-01
ITEM: ATOMS id type x y 
42523 6 -3.06554e-15 133.499 
42524 6 -0.5 134.365 
42526 6 -1 135.231 
42527 6 -3.0183e-15 135.231 
42529 6 -1.5 136.097 
42530 6 -0.5 136.097 
42533 6 -2 136.963 
42534 6 -1 136.963 
42535 6 -2.97106e-15 136.963 
42525 6 0.5 134.365 
42528 6 1 135.231 
42531 6 0.5 136.097 
42532 6 1.5 136.097 
42536 6 1 136.963 
42537 6 2 136.963 
ITEM: TIMESTEP
150000
ITEM: NUMBER OF ATOMS
15
ITEM: BOX BOUNDS ff fm pp
-4.1000000000000000e+01 4.1000000000000000e+01
0.0000000000000000e+00 2.0000000000000000e+02
-2.5000000000000000e-01 2.5000000000000000e-01
ITEM: ATOMS id type x y 
42530 6 -0.5 132.483 
42523 6 -3.55517e-15 129.885 
42524 6 -0.5 130.751 
42526 6 -1 131.617 
42527 6 -3.47377e-15 131.617 
42529 6 -1.5 132.483 
42533 6 -2 133.349 
42534 6 -1 133.349 
42535 6 -3.39237e-15 133.349 
42525 6 0.5 130.751 
42528 6 1 131.617 
42531 6 0.5 132.483 
42532 6 1.5 132.483 
42536 6 1 133.349 
42537 6 2 133.349 
ITEM: TIMESTEP
160000
ITEM: NUMBER OF ATOMS
15
ITEM: BOX BOUNDS ff fm pp
-4.1000000000000000e+01 4.1000000000000000e+01
0.0000000000000000e+00 2.0000000000000000e+02
-2.5000000000000000e-01 2.5000000000000000e-01
ITEM: ATOMS id type x y 
42524 6 -0.499899 126.962 
42526 6 -0.999937 127.828 
42529 6 -1.49998 128.694 
42530 6 -0.499975 128.694 
42533 6 -2.00001 129.56 
42534 6 -1.00001 129.56 
42535 6 -1.33885e-05 129.56 
42537 6 1.99999 129.56 
42523 6 0.000139753 126.096 
42525 6 0.500101 126.962 
42527 6 6.31825e-05 127.828 
42528 6 1.00006 127.828 
42531 6 0.500025 128.694 
42532 6 1.50002 128.694 
42536 6 0.999987 129.56 
ITEM: TIMESTEP
170000
ITEM: NUMBER OF ATOMS
15
ITEM: BOX BOUNDS ff fm pp
-4.1000000000000000e+01 4.1000000000000000e+01
0.0000000000000000e+00 2.0000000000000000e+02
-2.5000000000000000e-01 2.5000000000000000e-01
ITEM: ATOMS id type x y 
42524 6 -0.499776 123.119 
42526 6 -0.999862 123.985 
42529 6 -1.49995 124.851 
42530 6 -0.499947 124.851 
42533 6 -2.00003 125.717 
42534 6 -1.00003 125.717 
42535 6 -3.31842e-05 125.717 
42523 6 0.000310011 122.253 
42525 6 0.500224 123.119 
42527 6 0.000138414 123.985 
42528 6 1.00014 123.985 
42531 6 0.500053 124.851 
42532 6 1.50005 124.851 
42536 6 0.999967 125.717 
42537 6 1.99997 125.717 
ITEM: TIMESTEP
180000
ITEM: NUMBER OF ATOMS
15
ITEM: BOX BOUNDS ff fm pp
-4.1000000000000000e+01 4.1000000000000000e+01
0.0000000000000000e+00 2.0000000000000000e+02
-2.5000000000000000e-01 2.5000000000000000e-01
ITEM: ATOMS id type x y 
42524 6 -0.49968 119.033 
42526 6 -0.999803 119.899 
42529 6 -1.49993 120.765 
42530 6 -0.499926 120.765 
42533 6 -2.00005 121.631 
42534 6 -1.00005 121.631 
42535 6 -4.98367e-05 121.631 
42523 6 0.000443601 118.167 
42525 6 0.50032 119.033 
42527 6 0.000196882 119.899 
42528 6 1.0002 119.899 
42531 6 0.500074 120.765 
42532 6 1.50007 120.765 
42536 6 0.99995 121.631 
42537 6 1.99995 121.631 
ITEM: TIMESTEP
190000
ITEM: NUMBER OF ATOMS
15
ITEM: BOX BOUNDS ff fm pp
-4.1000000000000000e+01 4.1000000000000000e+01
0.0000000000000000e+00 2.0000000000000000e+02
-2.5000000000000000e-01 2.5000000000000000e-01
ITEM: ATOMS id type x y 
42524 6 -0.49915 114.731 
42526 6 -0.999223 115.597 
42529 6 -1.4993 116.463 
42530 6 -0.499296 116.463 
42533 6 -1.99937 117.329 
42534 6 -0.999369 117.329 
42523 6 0.000922845 113.865 
42525 6 0.50085 114.731 
42527 6 0.000776835 115.597 
42528 6 1.00078 115.597 
42531 6 0.500704 116.463 
42532 6 1.5007 116.463 
42535 6 0.000630825 117.329 
42536 6 1.00063 117.329 
42537 6 2.00063 117.329 
ITEM: TIMESTEP
200000
ITEM: NUMBER OF ATOMS
15
ITEM: BOX BOUNDS ff fm pp
-4.1000000000000000e+01 4.1000000000000000e+01
0.0000000000000000e+00 2.0000000000000000e+02
-2.5000000000000000e-01 2.5000000000000000e-01
ITEM: ATOMS id type x y 
42524 6 -0.494259 110.348 
42526 6 -0.994583 111.214 
42529 6 -1.49491 112.08 
42530 6 -0.494907 112.08 
42533 6 -1.99523 112.946 
42534 6 -0.995232 112.946 
42523 6 0.00606496 109.483 
42525 6 0.505741 110.349 
42527 6 0.00541669 111.215 
42528 6 1.00542 111.215 
42531 6 0.505093 112.081 
42532 6 1.50509 112.081 
42535 6 0.00476842 112.947 
42536 6 1.00477 112.947 
42537 6 2.00477 112.947 
ITEM: TIMESTEP
210000
ITEM: NUMBER OF ATOMS
15
ITEM: BOX BOUNDS ff fm pp
-4.1000000000000000e+01 4.1000000000000000e+01
0.0000000000000000e+00 2.0000000000000000e+02
-2.5000000000000000e-01 2.5000000000000000e-01
ITEM: ATOMS id type x y 
42524 6 -0.486115 105.77 
42526 6 -0.986924 106.636 
42529 6 -1.48773 107.501 
42530 6 -0.487734 107.502 
42533 6 -1.98854 108.367 
42534 6 -0.988543 108.368 
42523 6 0.0146944 104.905 
42525 6 0.513885 105.771 
42527 6 0.0130753 106.637 
42528 6 1.01307 106.638 
42531 6 0.512266 107.503 
42532 6 1.51227 107.504 
42535 6 0.0114563 108.369 
42536 6 1.01146 108.37 
42537 6 2.01146 108.371 
ITEM: TIMESTEP
220000
ITEM: NUMBER OF ATOMS
15
ITEM: BOX BOUNDS ff fm pp
-4.1000000000000000e+01 4.1000000000000000e+01
0.0000000000000000e+00 2.0000000000000000e+02
-2.5000000000000000e-01 2.5000000000000000e-01
ITEM: ATOMS id type x y 
42524 6 -0.470501 101.081 
42526 6 -0.972525 101.946 
42529 6 -1.47455 102.81 
42530 6 -0.474551 102.813 
42533 6 -1.97657 103.675 
42534 6 -0.976575 103.678 
42523 6 0.0315223 100.216 
42525 6 0.529496 101.083 
42527 6 0.0274725 101.948 
42528 6 1.02747 101.95 
42531 6 0.525446 102.815 
42532 6 1.52544 102.817 
42535 6 0.0234227 103.68 
42536 6 1.02342 103.682 
42537 6 2.02342 103.685 
ITEM: TIMESTEP
230000
ITEM: NUMBER OF ATOMS
15
ITEM: BOX BOUNDS ff fm pp
-4.1000000000000000e+01 4.1000000000000000e+01
0.0000000000000000e+00 2.0000000000000000e+02
-2.5000000000000000e-01 2.5000000000000000e-01
ITEM: ATOMS id type x y 
42524 6 -0.445818 96.2322 
42526 6 -0.948512 97.0966 
42529 6 -1.45121 97.9611 
42530 6 -0.451211 97.9642 
42533 6 -1.9539 98.8255 
42534 6 -0.953904 98.8286 
42523 6 0.0568758 95.3678 
42525 6 0.554177 96.2353 
42527 6 0.0514832 97.0997 
42528 6 1.05148 97.1029 
42531 6 0.548785 97.9673 
42532 6 1.54878 97.9704 
42535 6 0.0460907 98.8317 
42536 6 1.04609 98.8348 
42537 6 2.04608 98.838 
ITEM: TIMESTEP
240000
ITEM: NUMBER OF ATOMS
15
ITEM: BOX BOUNDS ff fm pp
-4.1000000000000000e+01 4.1000000000000000e+01
0.0000000000000000e+00 2.0000000000000000e+02
-2.5000000000000000e-01 2.5000000000000000e-01
ITEM: ATOMS id type x y 
42524 6 -0.391394 91.3331 
42526 6 -0.904764 92.1912 
42529 6 -1.41813 93.0494 
42530 6 -0.418254 93.0649 
42533 6 -1.9315 93.9075 
42534 6 -0.931624 93.923 
42523 6 0.121976 90.475 
42525 6 0.608486 91.3486 
42527 6 0.0951162 92.2067 
42528 6 1.095 92.2223 
42531 6 0.581626 93.0804 
42532 6 1.58151 93.0959 
42535 6 0.0682559 93.9385 
42536 6 1.06814 93.954 
42537 6 2.06802 93.9696 
ITEM: TIMESTEP
250000
ITEM: NUMBER OF ATOMS
15
ITEM: BOX BOUNDS ff fm pp
-4.1000000000000000e+01 4.1000000000000000e+01
0.0000000000000000e+00 2.0000000000000000e+02
-2.5000000000000000e-01 2.5000000000000000e-01
ITEM: ATOMS id type x y 
42524 6 -0.326774 86.3111 
42526 6 -0.855465 87.1598 
42529 6 -1.38416 88.0086 
42530 6 -0.384716 88.0421 
42533 6 -1.91285 88.8574 
42534 6 -0.913407 88.8909 
42523 6 0.201917 85.4623 
42525 6 0.672666 86.3445 
42527 6 0.143975 87.1933 
42528 6 1.14342 87.2267 
42531 6 0.614724 88.0755 
42532 6 1.61416 88.109 
42535 6 0.0860333 88.9243 
42536 6 1.08547 88.9578 
42537 6 2.08491 88.9912 
ITEM: TIMESTEP
260000
ITEM: NUMBER OF ATOMS
15
ITEM: BOX BOUNDS ff fm pp
-4.1000000000000000e+01 4.1000000000000000e+01
0.0000000000000000e+00 2.0000000000000000e+02
-2.5000000000000000e-01 2.5000000000000000e-01
ITEM: ATOMS id type x y 
42524 6 -0.257068 81.1135 
42526 6 -0.809696 81.9469 
42529 6 -1.36232 82.7803 
42530 6 -0.36424 82.8422 
42533 6 -1.91495 83.6137 
42534 6 -0.916867 83.6756 
42523 6 0.29556 80.2801 
42525 6 0.741016 81.1754 
42527 6 0.188388 82.0088 
42528 6 1.18647 82.0707 
42531 6 0.633844 82.9041 
42532 6 1.63193 82.966 
42535 6 0.0812166 83.7375 
42536 6 1.0793 83.7994 
42537 6 2.07738 83.8613 
ITEM: TIMESTEP
270000
ITEM: NUMBER OF ATOMS
15
ITEM: BOX BOUNDS ff fm pp
-4.1000000000000000e+01 4.1000000000000000e+01
0.0000000000000000e+00 2.0000000000000000e+02
-2.5000000000000000e-01 2.5000000000000000e-01
ITEM: ATOMS id type x y 
42524 6 -0.184482 75.8516 
42526 6 -0.772229 76.6607 
42529 6 -1.35998 77.4697 
42530 6 -0.365451 77.5742 
42533 6 -1.94772 78.2787 
42534 6 -0.953198 78.3832 
42523 6 0.403266 75.0426 
42525 6 0.810045 75.9561 
42527 6 0.222297 76.7652 
42528 6 1.21682 76.8696 
42531 6 0.629076 77.6787 
42532 6 1.6236 77.7831 
42535 6 0.041328 78.4877 
42536 6 1.03585 78.5922 
42537 6 2.03038 78.6966 
ITEM: TIMESTEP
280000
ITEM: NUMBER OF ATOMS
15
ITEM: BOX BOUNDS ff fm pp
-4.1000000000000000e+01 4.1000000000000000e+01
0.0000000000000000e+00 2.0000000000000000e+02
-2.5000000000000000e-01 2.5000000000000000e-01
ITEM: ATOMS id type x y 
42524 6 -0.113867 70.5886 
42526 6 -0.750459 71.3598 
42529 6 -1.38705 72.131 
42530 6 -0.400876 72.2967 
42533 6 -2.02364 72.9021 
42534 6 -1.03747 73.0678 
42535 6 -0.0512925 73.2335 
42523 6 0.522724 69.8174 
42525 6 0.872308 70.7543 
42527 6 0.235716 71.5255 
42528 6 1.22189 71.6912 
42531 6 0.585299 72.4624 
42532 6 1.57147 72.6281 
42536 6 0.934882 73.3993 
42537 6 1.92106 73.565 
ITEM: TIMESTEP
290000
ITEM: NUMBER OF ATOMS
15
ITEM: BOX BOUNDS ff fm pp
-4.1000000000000000e+01 4.1000000000000000e+01
0.0000000000000000e+00 2.0000000000000000e+02
-2.5000000000000000e-01 2.5000000000000000e-01
ITEM: ATOMS id type x y 
42526 6 -0.694882 66.2872 
42529 6 -1.40921 66.987 
42530 6 -0.445998 67.2557 
42533 6 -2.12354 67.6867 
42534 6 -1.16033 67.9555 
42535 6 -0.197115 68.2242 
42523 6 0.733779 64.8876 
42524 6 0.0194487 65.5874 
42525 6 0.982663 65.8561 
42527 6 0.268332 66.5559 
42528 6 1.23155 66.8246 
42531 6 0.517216 67.5244 
42532 6 1.48043 67.7932 
42536 6 0.7661 68.4929 
42537 6 1.72931 68.7617 
ITEM: TIMESTEP
300000
ITEM: NUMBER OF ATOMS
15
ITEM: BOX BOUNDS ff fm pp
-4.1000000000000000e+01 4.1000000000000000e+01
0.0000000000000000e+00 2.0000000000000000e+02
-2.5000000000000000e-01 2.5000000000000000e-01
ITEM: ATOMS id type x y 
42526 6 -0.600526 61.2731 
42529 6 -1.39755 61.877 
42533 6 -2.19457 62.4809 
42530 6 -0.476004 62.2653 
42534 6 -1.27302 62.8692 
42535 6 -0.351483 63.2575 
42523 6 0.993515 60.0653 
42524 6 0.196495 60.6692 
42525 6 1.11804 61.0575 
42527 6 0.321016 61.6614 
42528 6 1.24256 62.0497 
42531 6 0.445538 62.6536 
42532 6 1.36708 63.0419 
42536 6 0.570059 63.6458 
42537 6 1.4916 64.0341 
ITEM: TIMESTEP
310000
ITEM: NUMBER OF ATOMS
15
ITEM: BOX BOUNDS ff fm pp
-4.1000000000000000e+01 4.1000000000000000e+01
0.0000000000000000e+00 2.0000000000000000e+02
-2.5000000000000000e-01 2.5000000000000000e-01
ITEM: ATOMS id type x y 
42526 6 -0.494363 56.1149 
42533 6 -2.22183 57.1227 
42529 6 -1.3581 56.6188 
42530 6 -0.489808 57.1149 
42534 6 -1.35354 57.6188 
42535 6 -0.485253 58.1149 
42523 6 1.2331 55.1071 
42524 6 0.369369 55.611 
42527 6 0.373924 56.611 
42525 6 1.23766 56.1071 
42528 6 1.24221 57.107 
42531 6 0.378479 57.611 
42532 6 1.24677 58.107 
42536 6 0.383035 58.6109 
42537 6 1.25132 59.107 
ITEM: TIMESTEP
320000
ITEM: NUMBER OF ATOMS
15
ITEM: BOX BOUNDS ff fm pp
-4.1000000000000000e+01 4.1000000000000000e+01
0.0000000000000000e+00 2.0000000000000000e+02
-2.5000000000000000e-01 2.5000000000000000e-01
ITEM: ATOMS id type x y 
42526 6 -0.280729 51.1834 
42529 6 -1.22342 51.517 
42533 6 -2.16612 51.8506 
42530 6 -0.463149 52.1666 
42534 6 -1.40584 52.5002 
42535 6 -0.64557 53.1498 
42523 6 1.60466 50.5162 
42524 6 0.661964 50.8498 
42527 6 0.479544 51.833 
42525 6 1.42224 51.4994 
42531 6 0.297124 52.8162 
42528 6 1.23982 52.4826 
42532 6 1.0574 53.4658 
42536 6 0.114704 53.7994 
42537 6 0.874977 54.449 
ITEM: TIMESTEP
330000
ITEM: NUMBER OF ATOMS
15
ITEM: BOX BOUNDS ff fm pp
-4.1000000000000000e+01 4.1000000000000000e+01
0.0000000000000000e+00 2.0000000000000000e+02
-2.5000000000000000e-01 2.5000000000000000e-01
ITEM: ATOMS id type x y 
42526 6 -0.109856 46.1654 
42533 6 -2.07346 46.545 
42529 6 -1.09166 46.3552 
42534 6 -1.41817 47.3004 
42530 6 -0.436371 47.1106 
42535 6 -0.762886 48.0558 
42536 6 -0.107599 48.8112 
42524 6 0.871947 45.9757 
42523 6 1.85375 45.7859 
42527 6 0.545431 46.9208 
42525 6 1.52723 46.731 
42531 6 0.218916 47.866 
42528 6 1.20072 47.6762 
42532 6 0.874204 48.6214 
42537 6 0.547688 49.5665 
ITEM: TIMESTEP
340000
ITEM: NUMBER OF ATOMS
15
ITEM: BOX BOUNDS ff fm pp
-4.1000000000000000e+01 4.1000000000000000e+01
0.0000000000000000e+00 2.0000000000000000e+02
-2.5000000000000000e-01 2.5000000000000000e-01
ITEM: ATOMS id type x y 
42529 6 -1.13641 41.5295 
42526 6 -0.167972 41.2803 
42533 6 -2.10485 41.7786 
42534 6 -1.40482 42.4927 
42530 6 -0.436385 42.2436 
42535 6 -0.704798 43.2068 
42536 6 -0.00477225 43.921 
42523 6 1.76891 40.782 
42524 6 0.800467 41.0311 
42527 6 0.532054 41.9944 
42525 6 1.50049 41.7452 
42528 6 1.23208 42.7085 
42531 6 0.263641 42.9577 
42532 6 0.963666 43.6718 
42537 6 0.695253 44.6351 
ITEM: TIMESTEP
350000
ITEM: NUMBER OF ATOMS
15
ITEM: BOX BOUNDS ff fm pp
-4.1000000000000000e+01 4.1000000000000000e+01
0.0000000000000000e+00 2.0000000000000000e+02
-2.5000000000000000e-01 2.5000000000000000e-01
ITEM: ATOMS id type x y 
42529 6 -1.17454 36.5503 
42526 6 -0.221888 36.2463 
42533 6 -2.12719 36.8543 
42530 6 -0.434921 37.2233 
42534 6 -1.38757 37.5273 
42535 6 -0.647954 38.2003 
42524 6 0.730762 35.9423 
42523 6 1.68341 35.6383 
42525 6 1.47038 36.6153 
42527 6 0.517729 36.9193 
42531 6 0.304696 37.8963 
42528 6 1.25735 37.5923 
42536 6 0.0916629 38.8734 
42532 6 1.04431 38.5694 
42537 6 0.83128 39.5464 
ITEM: TIMESTEP
360000
ITEM: NUMBER OF ATOMS
15
ITEM: BOX BOUNDS ff fm pp
-4.1000000000000000e+01 4.1000000000000000e+01
0.0000000000000000e+00 2.0000000000000000e+02
-2.5000000000000000e-01 2.5000000000000000e-01
ITEM: ATOMS id type x y 
42526 6 -0.182906 31.3872 
42529 6 -1.1085 31.7656 
42533 6 -2.0341 32.1441 
42530 6 -0.317925 32.378 
42534 6 -1.24352 32.7564 
42535 6 -0.452944 33.3688 
42523 6 1.66828 30.6302 
42524 6 0.742689 31.0087 
42527 6 0.60767 31.9995 
42525 6 1.53327 31.6211 
42531 6 0.472651 32.9903 
42528 6 1.39825 32.6119 
42532 6 1.26323 33.6027 
42536 6 0.337632 33.9812 
42537 6 1.12821 34.5935 
ITEM: TIMESTEP
370000
ITEM: NUMBER OF ATOMS
15
ITEM: BOX BOUNDS ff fm pp
-4.1000000000000000e+01 4.1000000000000000e+01
0.0000000000000000e+00 2.0000000000000000e+02
-2.5000000000000000e-01 2.5000000000000000e-01
ITEM: ATOMS id type x y 
42526 6 -0.212274 26.8541 
42529 6 -1.0764 27.3573 
42533 6 -1.94053 27.8605 
42534 6 -1.07263 28.3573 
42530 6 -0.2085 27.854 
42535 6 -0.204726 28.854 
42523 6 1.51598 25.8476 
42524 6 0.651852 26.3508 
42525 6 1.51975 26.8476 
42527 6 0.655626 27.3508 
42531 6 0.6594 28.3508 
42528 6 1.52353 27.8475 
42532 6 1.5273 28.8475 
42536 6 0.663174 29.3507 
42537 6 1.53107 29.8475 
ITEM: TIMESTEP
380000
ITEM: NUMBER OF ATOMS
15
ITEM: BOX BOUNDS ff fm pp
-4.1000000000000000e+01 4.1000000000000000e+01
0.0000000000000000e+00 2.0000000000000000e+02
-2.5000000000000000e-01 2.5000000000000000e-01
ITEM: ATOMS id type x y 
42526 6 -0.233737 22.418 
42529 6 -1.08542 22.9421 
42533 6 -1.93711 23.4661 
42530 6 -0.205747 23.4176 
42534 6 -1.05743 23.9416 
42535 6 -0.177757 24.4172 
42523 6 1.46963 21.37 
42524 6 0.617949 21.894 
42525 6 1.49762 22.3696 
42527 6 0.645939 22.8936 
42528 6 1.52561 23.3692 
42531 6 0.673928 23.8932 
42532 6 1.5536 24.3688 
42536 6 0.701918 24.8928 
42537 6 1.58159 25.3684 
ITEM: TIMESTEP
390000
ITEM: NUMBER OF ATOMS
15
ITEM: BOX BOUNDS ff fm pp
-4.1000000000000000e+01 4.1000000000000000e+01
0.0000000000000000e+00 2.0000000000000000e+02
-2.5000000000000000e-01 2.5000000000000000e-01
ITEM: ATOMS id type x y 
42526 6 -0.175311 18.4801 
42533 6 -1.97633 19.3497 
42529 6 -1.07582 18.9149 
42530 6 -0.249001 19.4773 
42534 6 -1.14951 19.9121 
42535 6 -0.322691 20.4746 
42523 6 1.62571 17.6105 
42524 6 0.725197 18.0453 
42525 6 1.55202 18.6078 
42527 6 0.651507 19.0425 
42531 6 0.577817 20.0398 
42528 6 1.47832 19.605 
42532 6 1.40463 20.6023 
42536 6 0.504127 21.0371 
42537 6 1.33094 21.5995 
ITEM: TIMESTEP
400000
ITEM: NUMBER OF ATOMS
15
ITEM: BOX BOUNDS ff fm pp
-4.1000000000000000e+01 4.1000000000000000e+01
0.0000000000000000e+00 2.0000000000000000e+02
-2.5000000000000000e-01 2.5000000000000000e-01
ITEM: ATOMS id type x y 
42526 6 -0.0906221 15.1282 
42533 6 -1.99609 15.7357 
42529 6 -1.04336 15.432 
42534 6 -1.25665 16.4089 
42530 6 -0.303921 16.1052 
42535 6 -0.517219 17.0821 
42523 6 1.81484 14.5207 
42524 6 0.862111 14.8245 
42527 6 0.648812 15.8014 
42525 6 1.60155 15.4977 
42528 6 1.38825 16.4747 
42531 6 0.435514 16.7784 
42536 6 0.222215 17.7554 
42532 6 1.17495 17.4516 
42537 6 0.96165 18.4286 
ITEM: TIMESTEP
410000
ITEM: NUMBER OF ATOMS
15
ITEM: BOX BOUNDS ff fm pp
-4.1000000000000000e+01 4.1000000000000000e+01
0.0000000000000000e+00 2.0000000000000000e+02
-2.5000000000000000e-01 2.5000000000000000e-01
ITEM: ATOMS id type x y 
42529 6 -1.05948 12.8172 
42526 6 -0.0915884 12.5659 
42533 6 -2.02737 13.0684 
42530 6 -0.357899 13.5298 
42534 6 -1.32579 13.781 
42535 6 -0.62421 14.4936 
42524 6 0.876304 12.3146 
42523 6 1.8442 12.0633 
42525 6 1.57789 13.0272 
42527 6 0.609994 13.2785 
42528 6 1.31158 13.9911 
42531 6 0.343683 14.2423 
42536 6 0.0773723 15.2062 
42532 6 1.04527 14.9549 
42537 6 0.778954 15.9188 
ITEM: TIMESTEP
420000
ITEM: NUMBER OF ATOMS
15
ITEM: BOX BOUNDS ff fm pp
-4.1000000000000000e+01 4.1000000000000000e+01
0.0000000000000000e+00 2.0000000000000000e+02
-2.5000000000000000e-01 2.5000000000000000e-01
ITEM: ATOMS id type x y 
42526 6 -0.0754101 10.6773 
42533 6 -2.05577 10.9566 
42529 6 -1.06559 10.817 
42534 6 -1.43974 11.7443 
42530 6 -0.449557 11.6047 
42535 6 -0.823704 12.532 
42536 6 -0.207669 13.3198 
42524 6 0.914772 10.5377 
42523 6 1.90495 10.3981 
42527 6 0.540625 11.4651 
42525 6 1.53081 11.3254 
42531 6 0.166478 12.3924 
42528 6 1.15666 12.2528 
42532 6 0.782513 13.1801 
42537 6 0.408366 14.1075 
ITEM: TIMESTEP
430000
ITEM: NUMBER OF ATOMS
15
ITEM: BOX BOUNDS ff fm pp
-4.1000000000000000e+01 4.1000000000000000e+01
0.0000000000000000e+00 2.0000000000000000e+02
-2.5000000000000000e-01 2.5000000000000000e-01
ITEM: ATOMS id type x y 
42533 6 -2.15324 9.33063 
42529 6 -1.15341 9.34803 
42526 6 -0.153584 9.36542 
42534 6 -1.66837 10.2052 
42530 6 -0.66854 10.2226 
42535 6 -1.1835 11.0798 
42531 6 -0.183669 11.0972 
42536 6 -0.698625 11.9544 
42537 6 -0.213754 12.829 
42524 6 0.846243 9.38282 
42523 6 1.84607 9.40021 
42527 6 0.331287 10.24 
42525 6 1.33111 10.2574 
42528 6 0.816158 11.1146 
42532 6 0.301202 11.9718 
ITEM: TIMESTEP
440000
ITEM: NUMBER OF ATOMS
15
ITEM: BOX BOUNDS ff fm pp
-4.1000000000000000e+01 4.1000000000000000e+01
0.0000000000000000e+00 2.0000000000000000e+02
-2.5000000000000000e-01 2.5000000000000000e-01
ITEM: ATOMS id type x y 
42533 6 -2.39122 8.65275 
42529 6 -1.39198 8.69131 
42526 6 -0.39275 8.72987 
42534 6 -1.92498 9.53741 
42530 6 -0.925742 9.57597 
42535 6 -1.45873 10.4221 
42531 6 -0.4595 10.4606 
42536 6 -0.992491 11.3067 
42537 6 -0.526249 12.1914 
42524 6 0.606484 8.76844 
42523 6 1.60572 8.807 
42527 6 0.0734921 9.61453 
42525 6 1.07273 9.65309 
42528 6 0.539735 10.4992 
42532 6 0.00674291 11.3453 
ITEM: TIMESTEP
450000
ITEM: NUMBER OF ATOMS
15
ITEM: BOX BOUNDS ff fm pp
-4.1000000000000000e+01 4.1000000000000000e+01
0.0000000000000000e+00 2.0000000000000000e+02
-2.5000000000000000e-01 2.5000000000000000e-01
ITEM: ATOMS id type x y 
42533 6 -2.4624 8.64039 
42529 6 -1.46244 8.64666 
42526 6 -0.462487 8.65292 
42534 6 -1.96783 9.50952 
42530 6 -0.967871 9.51579 
42535 6 -1.47326 10.3787 
42531 6 -0.473298 10.3849 
42536 6 -0.978683 11.2478 
42537 6 -0.484109 12.1169 
42524 6 0.537472 8.65919 
42523 6 1.53743 8.66546 
42527 6 0.032087 9.52206 
42525 6 1.03205 9.52833 
42528 6 0.526661 10.3912 
42532 6 0.0212757 11.2541 
ITEM: TIMESTEP
460000
ITEM: NUMBER OF ATOMS
15
ITEM: BOX BOUNDS ff fm pp
-4.1000000000000000e+01 4.1000000000000000e+01
0.0000000000000000e+00 2.0000000000000000e+02
-2.5000000000000000e-01 2.5000000000000000e-01
ITEM: ATOMS id type x y 
42533 6 -2.45073 8.64633 
42529 6 -1.45076 8.64868 
42526 6 -0.45078 8.65103 
42534 6 -1.95276 9.51352 
42530 6 -0.952783 9.51587 
42535 6 -1.45479 10.3807 
42531 6 -0.45481 10.3831 
42536 6 -0.956813 11.2479 
42537 6 -0.458841 12.1151 
42524 6 0.549195 8.65338 
42523 6 1.54917 8.65574 
42527 6 0.0471923 9.51822 
42525 6 1.04717 9.52058 
42528 6 0.545165 10.3854 
42532 6 0.0431621 11.2503 
ITEM: TIMESTEP
470000
ITEM: NUMBER OF ATOMS
15
ITEM: BOX BOUNDS ff fm pp
-4.1000000000000000e+01 4.1000000000000000e+01
0.0000000000000000e+00 2.0000000000000000e+02
-2.5000000000000000e-01 2.5000000000000000e-01
ITEM: ATOMS id type x y 
42533 6 -2.42435 8.66621 
42529 6 -1.42439 8.67303 
42526 6 -0.424438 8.67986 
42534 6 -1.93026 9.53562 
42530 6 -0.930305 9.54245 
42535 6 -1.43617 10.405 
42531 6 -0.436218 10.4119 
42536 6 -0.942086 11.2744 
42537 6 -0.447999 12.1439 
42524 6 0.575517 8.68669 
42523 6 1.57547 8.69352 
42527 6 0.0696493 9.54927 
42525 6 1.0696 9.5561 
42528 6 0.563736 10.4187 
42532 6 0.0578685 11.2813 
ITEM: TIMESTEP
480000
ITEM: NUMBER OF ATOMS
15
ITEM: BOX BOUNDS ff fm pp
-4.1000000000000000e+01 4.1000000000000000e+01
0.0000000000000000e+00 2.0000000000000000e+02
-2.5000000000000000e-01 2.5000000000000000e-01
ITEM: ATOMS id type x y 
42533 6 -2.44429 8.66054 
42529 6 -1.44432 8.66436 
42526 6 -0.444351 8.66817 
42534 6 -1.94759 9.52846 
42530 6 -0.947617 9.53228 
42535 6 -1.45088 10.3964 
42531 6 -0.450913 10.4002 
42536 6 -0.95418 11.2643 
42537 6 -0.457476 12.1322 
42524 6 0.55562 8.67198 
42523 6 1.55559 8.6758 
42527 6 0.0523533 9.53609 
42525 6 1.05232 9.5399 
42528 6 0.549057 10.404 
42532 6 0.0457905 11.2681 
ITEM: TIMESTEP
490000
ITEM: NUMBER OF ATOMS
15
ITEM: BOX BOUNDS ff fm pp
-4.1000000000000000e+01 4.1000000000000000e+01
0.0000000000000000e+00 2.0000000000000000e+02