ITEM: TIMESTEP
0
ITEM: NUMBER OF ATOMS
1
ITEM: BOX BOUNDS ff fm pp
-4.1000000000000000e+01 4.1000000000000000e+01
0.0000000000000000e+00 2.0000000000000000e+02
-2.5000000000000000e-01 2.5000000000000000e-01
ITEM: ATOMS id type x y vx vy fx fy omegaz tqz c_101[1] c_101[2] c_101[4] c_102 
42463 2 0 126.52 0 0 -1.70648e-13 -1393.45 0 0 -0 -0 -0 0 
ITEM: TIMESTEP
100
ITEM: NUMBER OF ATOMS
1
ITEM: BOX BOUNDS ff fm pp
-4.1000000000000000e+01 4.1000000000000000e+01
0.0000000000000000e+00 2.0000000000000000e+02
-2.5000000000000000e-01 2.5000000000000000e-01
ITEM: ATOMS id type x y vx vy fx fy omegaz tqz c_101[1] c_101[2] c_101[4] c_102 
42463 2 -1.53081e-21 126.52 -6.12323e-19 -0.005 -1.70648e-13 -1393.45 0 0 -0 -0 -0 0 
ITEM: TIMESTEP
200
ITEM: NUMBER OF ATOMS
1
ITEM: BOX BOUNDS ff fm pp
-4.1000000000000000e+01 4.1000000000000000e+01
0.0000000000000000e+00 2.0000000000000000e+02
-2.5000000000000000e-01 2.5000000000000000e-01
ITEM: ATOMS id type x y vx vy fx fy omegaz tqz c_101[1] c_101[2] c_101[4] c_102 
42463 2 -6.12323e-21 126.52 -1.22465e-18 -0.01 -1.70648e-13 -1393.45 0 0 -0 -0 -0 0 
ITEM: TIMESTEP
300
ITEM: NUMBER OF ATOMS
1
ITEM: BOX BOUNDS ff fm pp
-4.1000000000000000e+01 4.1000000000000000e+01
0.0000000000000000e+00 2.0000000000000000e+02
-2.5000000000000000e-01 2.5000000000000000e-01
ITEM: ATOMS id type x y vx vy fx fy omegaz tqz c_101[1] c_101[2] c_101[4] c_102 
42463 2 -1.37773e-20 126.52 -1.83697e-18 -0.015 -1.70648e-13 -1393.45 0 0 -0 -0 -0 0 
ITEM: TIMESTEP
400
ITEM: NUMBER OF ATOMS
1
ITEM: BOX BOUNDS ff fm pp
-4.1000000000000000e+01 4.1000000000000000e+01
0.0000000000000000e+00 2.0000000000000000e+02
-2.5000000000000000e-01 2.5000000000000000e-01
ITEM: ATOMS id type x y vx vy fx fy omegaz tqz c_101[1] c_101[2] c_101[4] c_102 
42463 2 -2.44929e-20 126.52 -2.44929e-18 -0.02 -1.70648e-13 -1393.45 0 0 -0 -0 -0 0 
ITEM: TIMESTEP
500
ITEM: NUMBER OF ATOMS
1
ITEM: BOX BOUNDS ff fm pp
-4.1000000000000000e+01 4.1000000000000000e+01
0.0000000000000000e+00 2.0000000000000000e+02
-2.5000000000000000e-01 2.5000000000000000e-01
ITEM: ATOMS id type x y vx vy fx fy omegaz tqz c_101[1] c_101[2] c_101[4] c_102 
42463 2 -3.82702e-20 126.52 -3.06162e-18 -0.025 -1.70648e-13 -1393.45 0 0 -0 -0 -0 0 
ITEM: TIMESTEP
600
ITEM: NUMBER OF ATOMS
1
ITEM: BOX BOUNDS ff fm pp
-4.1000000000000000e+01 4.1000000000000000e+01
0.0000000000000000e+00 2.0000000000000000e+02
-2.5000000000000000e-01 2.5000000000000000e-01
ITEM: ATOMS id type x y vx vy fx fy omegaz tqz c_101[1] c_101[2] c_101[4] c_102 
42463 2 -5.51091e-20 126.52 -3.67394e-18 -0.03 -1.70648e-13 -1393.45 0 0 -0 -0 -0 0 
ITEM: TIMESTEP
700
ITEM: NUMBER OF ATOMS
1
ITEM: BOX BOUNDS ff fm pp
-4.1000000000000000e+01 4.1000000000000000e+01
0.0000000000000000e+00 2.0000000000000000e+02
-2.5000000000000000e-01 2.5000000000000000e-01
ITEM: ATOMS id type x y vx vy fx fy omegaz tqz c_101[1] c_101[2] c_101[4] c_102 
42463 2 -7.50096e-20 126.519 -4.28626e-18 -0.035 -1.70648e-13 -1393.45 0 0 -0 -0 -0 0 
ITEM: TIMESTEP
800
ITEM: NUMBER OF ATOMS
1
ITEM: BOX BOUNDS ff fm pp
-4.1000000000000000e+01 4.1000000000000000e+01
0.0000000000000000e+00 2.0000000000000000e+02
-2.5000000000000000e-01 2.5000000000000000e-01
ITEM: ATOMS id type x y vx vy fx fy omegaz tqz c_101[1] c_101[2] c_101[4] c_102 
42463 2 -9.79717e-20 126.519 -4.89859e-18 -0.04 -1.70648e-13 -1393.45 0 0 -0 -0 -0 0 
ITEM: TIMESTEP
900
ITEM: NUMBER OF ATOMS
1
ITEM: BOX BOUNDS ff fm pp
-4.1000000000000000e+01 4.1000000000000000e+01
0.0000000000000000e+00 2.0000000000000000e+02
-2.5000000000000000e-01 2.5000000000000000e-01
ITEM: ATOMS id type x y vx vy fx fy omegaz tqz c_101[1] c_101[2] c_101[4] c_102 
42463 2 -1.23995e-19 126.519 -5.51091e-18 -0.045 -1.70648e-13 -1393.45 0 0 -0 -0 -0 0 
ITEM: TIMESTEP
1000
ITEM: NUMBER OF ATOMS
1
ITEM: BOX BOUNDS ff fm pp
-4.1000000000000000e+01 4.1000000000000000e+01
0.0000000000000000e+00 2.0000000000000000e+02
-2.5000000000000000e-01 2.5000000000000000e-01
ITEM: ATOMS id type x y vx vy fx fy omegaz tqz c_101[1] c_101[2] c_101[4] c_102 
42463 2 -1.53081e-19 126.519 -6.12323e-18 -0.05 -1.70648e-13 -1393.45 0 0 -0 -0 -0 0 
ITEM: TIMESTEP
1100
ITEM: NUMBER OF ATOMS
1
ITEM: BOX BOUNDS ff fm pp
-4.1000000000000000e+01 4.1000000000000000e+01
0.0000000000000000e+00 2.0000000000000000e+02
-2.5000000000000000e-01 2.5000000000000000e-01
ITEM: ATOMS id type x y vx vy fx fy omegaz tqz c_101[1] c_101[2] c_101[4] c_102 
42463 2 -1.85228e-19 126.518 -6.73556e-18 -0.055 -1.70648e-13 -1393.45 0 0 -0 -0 -0 0 
ITEM: TIMESTEP
1200
ITEM: NUMBER OF ATOMS
1
ITEM: BOX BOUNDS ff fm pp
-4.1000000000000000e+01 4.1000000000000000e+01
0.0000000000000000e+00 2.0000000000000000e+02
-2.5000000000000000e-01 2.5000000000000000e-01
ITEM: ATOMS id type x y vx vy fx fy omegaz tqz c_101[1] c_101[2] c_101[4] c_102 
42463 2 -2.20436e-19 126.518 -7.34788e-18 -0.06 -1.70648e-13 -1393.45 0 0 -0 -0 -0 0 
ITEM: TIMESTEP
1300
ITEM: NUMBER OF ATOMS
1
ITEM: BOX BOUNDS ff fm pp
-4.1000000000000000e+01 4.1000000000000000e+01
0.0000000000000000e+00 2.0000000000000000e+02
-2.5000000000000000e-01 2.5000000000000000e-01
ITEM: ATOMS id type x y vx vy fx fy omegaz tqz c_101[1] c_101[2] c_101[4] c_102 
42463 2 -2.58707e-19 126.518 -7.9602e-18 -0.065 -1.70648e-13 -1393.45 0 0 -0 -0 -0 0 
ITEM: TIMESTEP
1400
ITEM: NUMBER OF ATOMS
1
ITEM: BOX BOUNDS ff fm pp
-4.1000000000000000e+01 4.1000000000000000e+01
0.0000000000000000e+00 2.0000000000000000e+02
-2.5000000000000000e-01 2.5000000000000000e-01
ITEM: ATOMS id type x y vx vy fx fy omegaz tqz c_101[1] c_101[2] c_101[4] c_102 
42463 2 -3.00038e-19 126.518 -8.57253e-18 -0.07 -1.70648e-13 -1393.45 0 0 -0 -0 -0 0 
ITEM: TIMESTEP
1500
ITEM: NUMBER OF ATOMS
1
ITEM: BOX BOUNDS ff fm pp
-4.1000000000000000e+01 4.1000000000000000e+01
0.0000000000000000e+00 2.0000000000000000e+02
-2.5000000000000000e-01 2.5000000000000000e-01
ITEM: ATOMS id type x y vx vy fx fy omegaz tqz c_101[1] c_101[2] c_101[4] c_102 
42463 2 -3.44432e-19 126.517 -9.18485e-18 -0.075 -1.70648e-13 -1393.45 0 0 -0 -0 -0 0 
ITEM: TIMESTEP
1600
ITEM: NUMBER OF ATOMS
1
ITEM: BOX BOUNDS ff fm pp
-4.1000000000000000e+01 4.1000000000000000e+01
0.0000000000000000e+00 2.0000000000000000e+02
-2.5000000000000000e-01 2.5000000000000000e-01
ITEM: ATOMS id type x y vx vy fx fy omegaz tqz c_101[1] c_101[2] c_101[4] c_102 
42463 2 -3.91887e-19 126.517 -9.79717e-18 -0.08 -1.70648e-13 -1393.45 0 0 -0 -0 -0 0 
ITEM: TIMESTEP
1700
ITEM: NUMBER OF ATOMS
1
ITEM: BOX BOUNDS ff fm pp
-4.1000000000000000e+01 4.1000000000000000e+01
0.0000000000000000e+00 2.0000000000000000e+02
-2.5000000000000000e-01 2.5000000000000000e-01
ITEM: ATOMS id type x y vx vy fx fy omegaz tqz c_101[1] c_101[2] c_101[4] c_102 
42463 2 -4.42404e-19 126.516 -1.04095e-17 -0.085 -1.70648e-13 -1393.45 0 0 -0 -0 -0 0 
ITEM: TIMESTEP
1800
ITEM: NUMBER OF ATOMS
1
ITEM: BOX BOUNDS ff fm pp
-4.1000000000000000e+01 4.1000000000000000e+01
0.0000000000000000e+00 2.0000000000000000e+02
-2.5000000000000000e-01 2.5000000000000000e-01
ITEM: ATOMS id type x y vx vy fx fy omegaz tqz c_101[1] c_101[2] c_101[4] c_102 
42463 2 -4.95982e-19 126.516 -1.10218e-17 -0.09 -1.70648e-13 -1393.45 0 0 -0 -0 -0 0 
ITEM: TIMESTEP
1900
ITEM: NUMBER OF ATOMS
1
ITEM: BOX BOUNDS ff fm pp
-4.1000000000000000e+01 4.1000000000000000e+01
0.0000000000000000e+00 2.0000000000000000e+02
-2.5000000000000000e-01 2.5000000000000000e-01
ITEM: ATOMS id type x y vx vy fx fy omegaz tqz c_101[1] c_101[2] c_101[4] c_102 
42463 2 -5.52622e-19 126.515 -1.16341e-17 -0.095 -1.70648e-13 -1393.45 0 0 -0 -0 -0 0 
ITEM: TIMESTEP
2000
ITEM: NUMBER OF ATOMS
1
ITEM: BOX BOUNDS ff fm pp
-4.1000000000000000e+01 4.1000000000000000e+01
0.0000000000000000e+00 2.0000000000000000e+02
-2.5000000000000000e-01 2.5000000000000000e-01
ITEM: ATOMS id type x y vx vy fx fy omegaz tqz c_101[1] c_101[2] c_101[4] c_102 
42463 2 -6.12323e-19 126.515 -1.22465e-17 -0.1 -1.70648e-13 -1393.45 0 0 -0 -0 -0 0 
ITEM: TIMESTEP
2100
ITEM: NUMBER OF ATOMS
1
ITEM: BOX BOUNDS ff fm pp
-4.1000000000000000e+01 4.1000000000000000e+01
0.0000000000000000e+00 2.0000000000000000e+02
-2.5000000000000000e-01 2.5000000000000000e-01
ITEM: ATOMS id type x y vx vy fx fy omegaz tqz c_101[1] c_101[2] c_101[4] c_102 
42463 2 -6.75087e-19 126.514 -1.28588e-17 -0.105 -1.70648e-13 -1393.45 0 0 -0 -0 -0 0 
ITEM: TIMESTEP
2200
ITEM: NUMBER OF ATOMS
1
ITEM: BOX BOUNDS ff fm pp
-4.1000000000000000e+01 4.1000000000000000e+01
0.0000000000000000e+00 2.0000000000000000e+02
-2.5000000000000000e-01 2.5000000000000000e-01
ITEM: ATOMS id type x y vx vy fx fy omegaz tqz c_101[1] c_101[2] c_101[4] c_102 
42463 2 -7.40911e-19 126.514 -1.34711e-17 -0.11 -1.70648e-13 -1393.45 0 0 -0 -0 -0 0 
ITEM: TIMESTEP
2300
ITEM: NUMBER OF ATOMS
1
ITEM: BOX BOUNDS ff fm pp
-4.1000000000000000e+01 4.1000000000000000e+01
0.0000000000000000e+00 2.0000000000000000e+02
-2.5000000000000000e-01 2.5000000000000000e-01
ITEM: ATOMS id type x y vx vy fx fy omegaz tqz c_101[1] c_101[2] c_101[4] c_102 
42463 2 -8.09798e-19 126.513 -1.40834e-17 -0.115 -1.70648e-13 -1393.45 0 0 -0 -0 -0 0 
ITEM: TIMESTEP
2400
ITEM: NUMBER OF ATOMS
1
ITEM: BOX BOUNDS ff fm pp
-4.1000000000000000e+01 4.1000000000000000e+01
0.0000000000000000e+00 2.0000000000000000e+02
-2.5000000000000000e-01 2.5000000000000000e-01
ITEM: ATOMS id type x y vx vy fx fy omegaz tqz c_101[1] c_101[2] c_101[4] c_102 
42463 2 -8.81746e-19 126.513 -1.46958e-17 -0.12 -1.70648e-13 -1393.45 0 0 -0 -0 -0 0 
ITEM: TIMESTEP
2500
ITEM: NUMBER OF ATOMS
1
ITEM: BOX BOUNDS ff fm pp
-4.1000000000000000e+01 4.1000000000000000e+01
0.0000000000000000e+00 2.0000000000000000e+02
-2.5000000000000000e-01 2.5000000000000000e-01
ITEM: ATOMS id type x y vx vy fx fy omegaz tqz c_101[1] c_101[2] c_101[4] c_102 
42463 2 -9.56755e-19 126.512 -1.53081e-17 -0.125 -1.70648e-13 -1393.45 0 0 -0 -0 -0 0 
ITEM: TIMESTEP
2600
ITEM: NUMBER OF ATOMS
1
ITEM: BOX BOUNDS ff fm pp
-4.1000000000000000e+01 4.1000000000000000e+01
0.0000000000000000e+00 2.0000000000000000e+02
-2.5000000000000000e-01 2.5000000000000000e-01
ITEM: ATOMS id type x y vx vy fx fy omegaz tqz c_101[1] c_101[2] c_101[4] c_102 
42463 2 -1.03483e-18 126.512 -1.59204e-17 -0.13 -1.70648e-13 -1393.45 0 0 -0 -0 -0 0 
ITEM: TIMESTEP
2700
ITEM: NUMBER OF ATOMS
1
ITEM: BOX BOUNDS ff fm pp
-4.1000000000000000e+01 4.1000000000000000e+01
0.0000000000000000e+00 2.0000000000000000e+02
-2.5000000000000000e-01 2.5000000000000000e-01
ITEM: ATOMS id type x y vx vy fx fy omegaz tqz c_101[1] c_101[2] c_101[4] c_102 
42463 2 -1.11596e-18 126.511 -1.65327e-17 -0.135 -1.70648e-13 -1393.45 0 0 -0 -0 -0 0 
ITEM: TIMESTEP
2800
ITEM: NUMBER OF ATOMS
1
ITEM: BOX BOUNDS ff fm pp
-4.1000000000000000e+01 4.1000000000000000e+01
0.0000000000000000e+00 2.0000000000000000e+02
-2.5000000000000000e-01 2.5000000000000000e-01
ITEM: ATOMS id type x y vx vy fx fy omegaz tqz c_101[1] c_101[2] c_101[4] c_102 
42463 2 -1.20015e-18 126.51 -1.71451e-17 -0.14 -1.70648e-13 -1393.45 0 0 -0 -0 -0 0 
ITEM: TIMESTEP
2900
ITEM: NUMBER OF ATOMS
1
ITEM: BOX BOUNDS ff fm pp
-4.1000000000000000e+01 4.1000000000000000e+01
0.0000000000000000e+00 2.0000000000000000e+02
-2.5000000000000000e-01 2.5000000000000000e-01
ITEM: ATOMS id type x y vx vy fx fy omegaz tqz c_101[1] c_101[2] c_101[4] c_102 
42463 2 -1.28741e-18 126.509 -1.77574e-17 -0.145 -1.70648e-13 -1393.45 0 0 -0 -0 -0 0 
ITEM: TIMESTEP
3000
ITEM: NUMBER OF ATOMS
1
ITEM: BOX BOUNDS ff fm pp
-4.1000000000000000e+01 4.1000000000000000e+01
0.0000000000000000e+00 2.0000000000000000e+02
-2.5000000000000000e-01 2.5000000000000000e-01
ITEM: ATOMS id type x y vx vy fx fy omegaz tqz c_101[1] c_101[2] c_101[4] c_102 
42463 2 -1.37773e-18 126.509 -1.83697e-17 -0.15 -1.70648e-13 -1393.45 0 0 -0 -0 -0 0 
ITEM: TIMESTEP
3100
ITEM: NUMBER OF ATOMS
1
ITEM: BOX BOUNDS ff fm pp
-4.1000000000000000e+01 4.1000000000000000e+01
0.0000000000000000e+00 2.0000000000000000e+02
-2.5000000000000000e-01 2.5000000000000000e-01
ITEM: ATOMS id type x y vx vy fx fy omegaz tqz c_101[1] c_101[2] c_101[4] c_102 
42463 2 -1.47111e-18 126.508 -1.8982e-17 -0.155 -1.70648e-13 -1393.45 0 0 -0 -0 -0 0 
ITEM: TIMESTEP
3200
ITEM: NUMBER OF ATOMS
1
ITEM: BOX BOUNDS ff fm pp
-4.1000000000000000e+01 4.1000000000000000e+01
0.0000000000000000e+00 2.0000000000000000e+02
-2.5000000000000000e-01 2.5000000000000000e-01
ITEM: ATOMS id type x y vx vy fx fy omegaz tqz c_101[1] c_101[2] c_101[4] c_102 
42463 2 -1.56755e-18 126.507 -1.95943e-17 -0.16 -1.70648e-13 -1393.45 0 0 -0 -0 -0 0 
ITEM: TIMESTEP
3300
ITEM: NUMBER OF ATOMS
1
ITEM: BOX BOUNDS ff fm pp
-4.1000000000000000e+01 4.1000000000000000e+01
0.0000000000000000e+00 2.0000000000000000e+02
-2.5000000000000000e-01 2.5000000000000000e-01
ITEM: ATOMS id type x y vx vy fx fy omegaz tqz c_101[1] c_101[2] c_101[4] c_102 
42463 2 -1.66705e-18 126.506 -2.02067e-17 -0.165 -1.70648e-13 -1393.45 0 0 -0 -0 -0 0 
ITEM: TIMESTEP
3400
ITEM: NUMBER OF ATOMS
1
ITEM: BOX BOUNDS ff fm pp
-4.1000000000000000e+01 4.1000000000000000e+01
0.0000000000000000e+00 2.0000000000000000e+02
-2.5000000000000000e-01 2.5000000000000000e-01
ITEM: ATOMS id type x y vx vy fx fy omegaz tqz c_101[1] c_101[2] c_101[4] c_102 
42463 2 -1.76961e-18 126.506 -2.0819e-17 -0.17 -1.70648e-13 -1393.45 0 0 -0 -0 -0 0 
ITEM: TIMESTEP
3500
ITEM: NUMBER OF ATOMS
1
ITEM: BOX BOUNDS ff fm pp
-4.1000000000000000e+01 4.1000000000000000e+01
0.0000000000000000e+00 2.0000000000000000e+02
-2.5000000000000000e-01 2.5000000000000000e-01
ITEM: ATOMS id type x y vx vy fx fy omegaz tqz c_101[1] c_101[2] c_101[4] c_102 
42463 2 -1.87524e-18 126.505 -2.14313e-17 -0.175 -1.70648e-13 -1393.45 0 0 -0 -0 -0 0 
ITEM: TIMESTEP
3600
ITEM: NUMBER OF ATOMS
1
ITEM: BOX BOUNDS ff fm pp
-4.1000000000000000e+01 4.1000000000000000e+01
0.0000000000000000e+00 2.0000000000000000e+02
-2.5000000000000000e-01 2.5000000000000000e-01
ITEM: ATOMS id type x y vx vy fx fy omegaz tqz c_101[1] c_101[2] c_101[4] c_102 
42463 2 -1.98393e-18 126.504 -2.20436e-17 -0.18 -1.70648e-13 -1393.45 0 0 -0 -0 -0 0 
ITEM: TIMESTEP
3700
ITEM: NUMBER OF ATOMS
1
ITEM: BOX BOUNDS ff fm pp
-4.1000000000000000e+01 4.1000000000000000e+01
0.0000000000000000e+00 2.0000000000000000e+02
-2.5000000000000000e-01 2.5000000000000000e-01
ITEM: ATOMS id type x y vx vy fx fy omegaz tqz c_101[1] c_101[2] c_101[4] c_102 
42463 2 -2.09568e-18 126.503 -2.2656e-17 -0.185 -1.70648e-13 -1393.45 0 0 -0 -0 -0 0 
ITEM: TIMESTEP
3800
ITEM: NUMBER OF ATOMS
1
ITEM: BOX BOUNDS ff fm pp
-4.1000000000000000e+01 4.1000000000000000e+01
0.0000000000000000e+00 2.0000000000000000e+02
-2.5000000000000000e-01 2.5000000000000000e-01
ITEM: ATOMS id type x y vx vy fx fy omegaz tqz c_101[1] c_101[2] c_101[4] c_102 
42463 2 -2.21049e-18 126.502 -2.32683e-17 -0.19 -1.70648e-13 -1393.45 0 0 -0 -0 -0 0 
ITEM: TIMESTEP
3900
ITEM: NUMBER OF ATOMS
1
ITEM: BOX BOUNDS ff fm pp
-4.1000000000000000e+01 4.1000000000000000e+01
0.0000000000000000e+00 2.0000000000000000e+02
-2.5000000000000000e-01 2.5000000000000000e-01
ITEM: ATOMS id type x y vx vy fx fy omegaz tqz c_101[1] c_101[2] c_101[4] c_102 
42463 2 -2.32836e-18 126.501 -2.38806e-17 -0.195 -1.70648e-13 -1393.45 0 0 -0 -0 -0 0 
ITEM: TIMESTEP
4000
ITEM: NUMBER OF ATOMS
1
ITEM: BOX BOUNDS ff fm pp
-4.1000000000000000e+01 4.1000000000000000e+01
0.0000000000000000e+00 2.0000000000000000e+02
-2.5000000000000000e-01 2.5000000000000000e-01
ITEM: ATOMS id type x y vx vy fx fy omegaz tqz c_101[1] c_101[2] c_101[4] c_102 
42463 2 -2.44929e-18 126.5 -2.44929e-17 -0.2 -1.70648e-13 -1393.45 0 0 -0 -0 -0 0 
ITEM: TIMESTEP
4100
ITEM: NUMBER OF ATOMS
1
ITEM: BOX BOUNDS ff fm pp
-4.1000000000000000e+01 4.1000000000000000e+01
0.0000000000000000e+00 2.0000000000000000e+02
-2.5000000000000000e-01 2.5000000000000000e-01
ITEM: ATOMS id type x y vx vy fx fy omegaz tqz c_101[1] c_101[2] c_101[4] c_102 
42463 2 -2.57329e-18 126.499 -2.51053e-17 -0.205 -1.70648e-13 -1393.45 0 0 -0 -0 -0 0 
ITEM: TIMESTEP
4200
ITEM: NUMBER OF ATOMS
1
ITEM: BOX BOUNDS ff fm pp
-4.1000000000000000e+01 4.1000000000000000e+01
0.0000000000000000e+00 2.0000000000000000e+02
-2.5000000000000000e-01 2.5000000000000000e-01
ITEM: ATOMS id type x y vx vy fx fy omegaz tqz c_101[1] c_101[2] c_101[4] c_102 
42463 2 -2.70035e-18 126.498 -2.57176e-17 -0.21 -1.70648e-13 -1393.45 0 0 -0 -0 -0 0 
ITEM: TIMESTEP
4300
ITEM: NUMBER OF ATOMS
1
ITEM: BOX BOUNDS ff fm pp
-4.1000000000000000e+01 4.1000000000000000e+01
0.0000000000000000e+00 2.0000000000000000e+02
-2.5000000000000000e-01 2.5000000000000000e-01
ITEM: ATOMS id type x y vx vy fx fy omegaz tqz c_101[1] c_101[2] c_101[4] c_102 
42463 2 -2.83046e-18 126.497 -2.63299e-17 -0.215 -1.70648e-13 -1393.45 0 0 -0 -0 -0 0 
ITEM: TIMESTEP
4400
ITEM: NUMBER OF ATOMS
1
ITEM: BOX BOUNDS ff fm pp
-4.1000000000000000e+01 4.1000000000000000e+01
0.0000000000000000e+00 2.0000000000000000e+02
-2.5000000000000000e-01 2.5000000000000000e-01
ITEM: ATOMS id type x y vx vy fx fy omegaz tqz c_101[1] c_101[2] c_101[4] c_102 
42463 2 -2.96365e-18 126.496 -2.69422e-17 -0.22 -1.70648e-13 -1393.45 0 0 -0 -0 -0 0 
ITEM: TIMESTEP
4500
ITEM: NUMBER OF ATOMS
1
ITEM: BOX BOUNDS ff fm pp
-4.1000000000000000e+01 4.1000000000000000e+01
0.0000000000000000e+00 2.0000000000000000e+02
-2.5000000000000000e-01 2.5000000000000000e-01
ITEM: ATOMS id type x y vx vy fx fy omegaz tqz c_101[1] c_101[2] c_101[4] c_102 
42463 2 -3.09989e-18 126.495 -2.75546e-17 -0.225 -1.70648e-13 -1393.45 0 0 -0 -0 -0 0 
ITEM: TIMESTEP
4600
ITEM: NUMBER OF ATOMS
1
ITEM: BOX BOUNDS ff fm pp
-4.1000000000000000e+01 4.1000000000000000e+01
0.0000000000000000e+00 2.0000000000000000e+02
-2.5000000000000000e-01 2.5000000000000000e-01
ITEM: ATOMS id type x y vx vy fx fy omegaz tqz c_101[1] c_101[2] c_101[4] c_102 
42463 2 -3.23919e-18 126.494 -2.81669e-17 -0.23 -1.70648e-13 -1393.45 0 0 -0 -0 -0 0 
ITEM: TIMESTEP
4700
ITEM: NUMBER OF ATOMS
1
ITEM: BOX BOUNDS ff fm pp
-4.1000000000000000e+01 4.1000000000000000e+01
0.0000000000000000e+00 2.0000000000000000e+02
-2.5000000000000000e-01 2.5000000000000000e-01
ITEM: ATOMS id type x y vx vy fx fy omegaz tqz c_101[1] c_101[2] c_101[4] c_102 
42463 2 -3.38156e-18 126.492 -2.87792e-17 -0.235 -1.70648e-13 -1393.45 0 0 -0 -0 -0 0 
ITEM: TIMESTEP
4800
ITEM: NUMBER OF ATOMS
1
ITEM: BOX BOUNDS ff fm pp
-4.1000000000000000e+01 4.1000000000000000e+01
0.0000000000000000e+00 2.0000000000000000e+02
-2.5000000000000000e-01 2.5000000000000000e-01
ITEM: ATOMS id type x y vx vy fx fy omegaz tqz c_101[1] c_101[2] c_101[4] c_102 
42463 2 -3.52698e-18 126.491 -2.93915e-17 -0.24 -1.70648e-13 -1393.45 0 0 -0 -0 -0 0 
ITEM: TIMESTEP
4900
ITEM: NUMBER OF ATOMS
1
ITEM: BOX BOUNDS ff fm pp
-4.1000000000000000e+01 4.1000000000000000e+01
0.0000000000000000e+00 2.0000000000000000e+02
-2.5000000000000000e-01 2.5000000000000000e-01
ITEM: ATOMS id type x y vx vy fx fy omegaz tqz c_101[1] c_101[2] c_101[4] c_102 
42463 2 -3.67547e-18 126.49 -3.00038e-17 -0.245 -1.70648e-13 -1393.45 0 0 -0 -0 -0 0 
ITEM: TIMESTEP
5000
ITEM: NUMBER OF ATOMS
1
ITEM: BOX BOUNDS ff fm pp
-4.1000000000000000e+01 4.1000000000000000e+01
0.0000000000000000e+00 2.0000000000000000e+02
-2.5000000000000000e-01 2.5000000000000000e-01
ITEM: ATOMS id type x y vx vy fx fy omegaz tqz c_101[1] c_101[2] c_101[4] c_102 
42463 2 -3.82702e-18 126.489 -3.06162e-17 -0.25 -1.70648e-13 -1393.45 0 0 -0 -0 -0 0 
ITEM: TIMESTEP
5100
ITEM: NUMBER OF ATOMS
1
ITEM: BOX BOUNDS ff fm pp
-4.1000000000000000e+01 4.1000000000000000e+01
0.0000000000000000e+00 2.0000000000000000e+02
-2.5000000000000000e-01 2.5000000000000000e-01
ITEM: ATOMS id type x y vx vy fx fy omegaz tqz c_101[1] c_101[2] c_101[4] c_102 
42463 2 -3.98163e-18 126.487 -3.12285e-17 -0.255 -1.70648e-13 -1393.45 0 0 -0 -0 -0 0 
ITEM: TIMESTEP
5200
ITEM: NUMBER OF ATOMS
1
ITEM: BOX BOUNDS ff fm pp
-4.1000000000000000e+01 4.1000000000000000e+01
0.0000000000000000e+00 2.0000000000000000e+02
-2.5000000000000000e-01 2.5000000000000000e-01
ITEM: ATOMS id type x y vx vy fx fy omegaz tqz c_101[1] c_101[2] c_101[4] c_102 
42463 2 -4.13931e-18 126.486 -3.18408e-17 -0.26 -1.70648e-13 -1393.45 0 0 -0 -0 -0 0 
ITEM: TIMESTEP
5300
ITEM: NUMBER OF ATOMS
1
ITEM: BOX BOUNDS ff fm pp
-4.1000000000000000e+01 4.1000000000000000e+01
0.0000000000000000e+00 2.0000000000000000e+02
-2.5000000000000000e-01 2.5000000000000000e-01
ITEM: ATOMS id type x y vx vy fx fy omegaz tqz c_101[1] c_101[2] c_101[4] c_102 
42463 2 -4.30004e-18 126.485 -3.24531e-17 -0.265 -1.70648e-13 -1393.45 0 0 -0 -0 -0 0 
ITEM: TIMESTEP
5400
ITEM: NUMBER OF ATOMS
1
ITEM: BOX BOUNDS ff fm pp
-4.1000000000000000e+01 4.1000000000000000e+01
0.0000000000000000e+00 2.0000000000000000e+02
-2.5000000000000000e-01 2.5000000000000000e-01
ITEM: ATOMS id type x y vx vy fx fy omegaz tqz c_101[1] c_101[2] c_101[4] c_102 
42463 2 -4.46384e-18 126.484 -3.30655e-17 -0.27 -1.70648e-13 -1393.45 0 0 -0 -0 -0 0 
ITEM: TIMESTEP
5500
ITEM: NUMBER OF ATOMS
1
ITEM: BOX BOUNDS ff fm pp
-4.1000000000000000e+01 4.1000000000000000e+01
0.0000000000000000e+00 2.0000000000000000e+02
-2.5000000000000000e-01 2.5000000000000000e-01
ITEM: ATOMS id type x y vx vy fx fy omegaz tqz c_101[1] c_101[2] c_101[4] c_102 
42463 2 -4.6307e-18 126.482 -3.36778e-17 -0.275 -1.70648e-13 -1393.45 0 0 -0 -0 -0 0 
ITEM: TIMESTEP
5600
ITEM: NUMBER OF ATOMS
1
ITEM: BOX BOUNDS ff fm pp
-4.1000000000000000e+01 4.1000000000000000e+01
0.0000000000000000e+00 2.0000000000000000e+02
-2.5000000000000000e-01 2.5000000000000000e-01
ITEM: ATOMS id type x y vx vy fx fy omegaz tqz c_101[1] c_101[2] c_101[4] c_102 
42463 2 -4.80062e-18 126.481 -3.42901e-17 -0.28 -1.70648e-13 -1393.45 0 0 -0 -0 -0 0 
ITEM: TIMESTEP
5700
ITEM: NUMBER OF ATOMS
1
ITEM: BOX BOUNDS ff fm pp
-4.1000000000000000e+01 4.1000000000000000e+01
0.0000000000000000e+00 2.0000000000000000e+02
-2.5000000000000000e-01 2.5000000000000000e-01
ITEM: ATOMS id type x y vx vy fx fy omegaz tqz c_101[1] c_101[2] c_101[4] c_102 
42463 2 -4.9736e-18 126.479 -3.49024e-17 -0.285 -1.70648e-13 -1393.45 0 0 -0 -0 -0 0 
ITEM: TIMESTEP
5800
ITEM: NUMBER OF ATOMS
1
ITEM: BOX BOUNDS ff fm pp
-4.1000000000000000e+01 4.1000000000000000e+01
0.0000000000000000e+00 2.0000000000000000e+02
-2.5000000000000000e-01 2.5000000000000000e-01
ITEM: ATOMS id type x y vx vy fx fy omegaz tqz c_101[1] c_101[2] c_101[4] c_102 
42463 2 -5.14964e-18 126.478 -3.55148e-17 -0.29 -1.70648e-13 -1393.45 0 0 -0 -0 -0 0 
ITEM: TIMESTEP
5900
ITEM: NUMBER OF ATOMS
1
ITEM: BOX BOUNDS ff fm pp
-4.1000000000000000e+01 4.1000000000000000e+01
0.0000000000000000e+00 2.0000000000000000e+02
-2.5000000000000000e-01 2.5000000000000000e-01
ITEM: ATOMS id type x y vx vy fx fy omegaz tqz c_101[1] c_101[2] c_101[4] c_102 
42463 2 -5.32874e-18 126.476 -3.61271e-17 -0.295 -1.70648e-13 -1393.45 0 0 -0 -0 -0 0 
ITEM: TIMESTEP
6000
ITEM: NUMBER OF ATOMS
1
ITEM: BOX BOUNDS ff fm pp
-4.1000000000000000e+01 4.1000000000000000e+01
0.0000000000000000e+00 2.0000000000000000e+02
-2.5000000000000000e-01 2.5000000000000000e-01
ITEM: ATOMS id type x y vx vy fx fy omegaz tqz c_101[1] c_101[2] c_101[4] c_102 
42463 2 -5.51091e-18 126.475 -3.67394e-17 -0.3 -1.70648e-13 -1393.45 0 0 -0 -0 -0 0 
ITEM: TIMESTEP
6100
ITEM: NUMBER OF ATOMS
1
ITEM: BOX BOUNDS ff fm pp
-4.1000000000000000e+01 4.1000000000000000e+01
0.0000000000000000e+00 2.0000000000000000e+02
-2.5000000000000000e-01 2.5000000000000000e-01
ITEM: ATOMS id type x y vx vy fx fy omegaz tqz c_101[1] c_101[2] c_101[4] c_102 
42463 2 -5.69614e-18 126.473 -3.73517e-17 -0.305 -1.70648e-13 -1393.45 0 0 -0 -0 -0 0 
ITEM: TIMESTEP
6200
ITEM: NUMBER OF ATOMS
1
ITEM: BOX BOUNDS ff fm pp
-4.1000000000000000e+01 4.1000000000000000e+01
0.0000000000000000e+00 2.0000000000000000e+02
-2.5000000000000000e-01 2.5000000000000000e-01
ITEM: ATOMS id type x y vx vy fx fy omegaz tqz c_101[1] c_101[2] c_101[4] c_102 
42463 2 -5.88443e-18 126.472 -3.79641e-17 -0.31 -1.70648e-13 -1393.45 0 0 -0 -0 -0 0 
ITEM: TIMESTEP
6300
ITEM: NUMBER OF ATOMS
1
ITEM: BOX BOUNDS ff fm pp
-4.1000000000000000e+01 4.1000000000000000e+01
0.0000000000000000e+00 2.0000000000000000e+02
-2.5000000000000000e-01 2.5000000000000000e-01
ITEM: ATOMS id type x y vx vy fx fy omegaz tqz c_101[1] c_101[2] c_101[4] c_102 
42463 2 -6.07578e-18 126.47 -3.85764e-17 -0.315 -1.70648e-13 -1393.45 0 0 -0 -0 -0 0 
ITEM: TIMESTEP
6400
ITEM: NUMBER OF ATOMS
1
ITEM: BOX BOUNDS ff fm pp
-4.1000000000000000e+01 4.1000000000000000e+01
0.0000000000000000e+00 2.0000000000000000e+02
-2.5000000000000000e-01 2.5000000000000000e-01
ITEM: ATOMS id type x y vx vy fx fy omegaz tqz c_101[1] c_101[2] c_101[4] c_102 
42463 2 -6.27019e-18 126.469 -3.91887e-17 -0.32 -1.70648e-13 -1393.45 0 0 -0 -0 -0 0 
ITEM: TIMESTEP
6500
ITEM: NUMBER OF ATOMS
1
ITEM: BOX BOUNDS ff fm pp
-4.1000000000000000e+01 4.1000000000000000e+01
0.0000000000000000e+00 2.0000000000000000e+02
-2.5000000000000000e-01 2.5000000000000000e-01
ITEM: ATOMS id type x y vx vy fx fy omegaz tqz c_101[1] c_101[2] c_101[4] c_102 
42463 2 -6.46767e-18 126.467 -3.9801e-17 -0.325 -1.70648e-13 -1393.45 0 0 -0 -0 -0 0 
ITEM: TIMESTEP
6600
ITEM: NUMBER OF ATOMS
1
ITEM: BOX BOUNDS ff fm pp
-4.1000000000000000e+01 4.1000000000000000e+01
0.0000000000000000e+00 2.0000000000000000e+02
-2.5000000000000000e-01 2.5000000000000000e-01
ITEM: ATOMS id type x y vx vy fx fy omegaz tqz c_101[1] c_101[2] c_101[4] c_102 
42463 2 -6.6682e-18 126.466 -4.04133e-17 -0.33 -1.70648e-13 -1393.45 0 0 -0 -0 -0 0 
ITEM: TIMESTEP
6700
ITEM: NUMBER OF ATOMS
1
ITEM: BOX BOUNDS ff fm pp
-4.1000000000000000e+01 4.1000000000000000e+01
0.0000000000000000e+00 2.0000000000000000e+02
-2.5000000000000000e-01 2.5000000000000000e-01
ITEM: ATOMS id type x y vx vy fx fy omegaz tqz c_101[1] c_101[2] c_101[4] c_102 
42463 2 -6.8718e-18 126.464 -4.10257e-17 -0.335 -1.70648e-13 -1393.45 0 0 -0 -0 -0 0 
ITEM: TIMESTEP
6800
ITEM: NUMBER OF ATOMS
1
ITEM: BOX BOUNDS ff fm pp
-4.1000000000000000e+01 4.1000000000000000e+01
0.0000000000000000e+00 2.0000000000000000e+02
-2.5000000000000000e-01 2.5000000000000000e-01
ITEM: ATOMS id type x y vx vy fx fy omegaz tqz c_101[1] c_101[2] c_101[4] c_102 
42463 2 -7.07846e-18 126.462 -4.1638e-17 -0.34 -1.70648e-13 -1393.45 0 0 -0 -0 -0 0 
ITEM: TIMESTEP
6900
ITEM: NUMBER OF ATOMS
1
ITEM: BOX BOUNDS ff fm pp
-4.1000000000000000e+01 4.1000000000000000e+01
0.0000000000000000e+00 2.0000000000000000e+02
-2.5000000000000000e-01 2.5000000000000000e-01
ITEM: ATOMS id type x y vx vy fx fy omegaz tqz c_101[1] c_101[2] c_101[4] c_102 
42463 2 -7.28818e-18 126.46 -4.22503e-17 -0.345 -1.70648e-13 -1393.45 0 0 -0 -0 -0 0 
ITEM: TIMESTEP
7000
ITEM: NUMBER OF ATOMS
1
ITEM: BOX BOUNDS ff fm pp
-4.1000000000000000e+01 4.1000000000000000e+01
0.0000000000000000e+00 2.0000000000000000e+02
-2.5000000000000000e-01 2.5000000000000000e-01
ITEM: ATOMS id type x y vx vy fx fy omegaz tqz c_101[1] c_101[2] c_101[4] c_102 
42463 2 -7.50096e-18 126.459 -4.28626e-17 -0.35 -1.70648e-13 -1393.45 0 0 -0 -0 -0 0 
ITEM: TIMESTEP
7100
ITEM: NUMBER OF ATOMS
1
ITEM: BOX BOUNDS ff fm pp
-4.1000000000000000e+01 4.1000000000000000e+01
0.0000000000000000e+00 2.0000000000000000e+02
-2.5000000000000000e-01 2.5000000000000000e-01
ITEM: ATOMS id type x y vx vy fx fy omegaz tqz c_101[1] c_101[2] c_101[4] c_102 
42463 2 -7.71681e-18 126.457 -4.3475e-17 -0.355 -1.70648e-13 -1393.45 0 0 -0 -0 -0 0 
ITEM: TIMESTEP
7200
ITEM: NUMBER OF ATOMS
1
ITEM: BOX BOUNDS ff fm pp
-4.1000000000000000e+01 4.1000000000000000e+01
0.0000000000000000e+00 2.0000000000000000e+02
-2.5000000000000000e-01 2.5000000000000000e-01
ITEM: ATOMS id type x y vx vy fx fy omegaz tqz c_101[1] c_101[2] c_101[4] c_102 
42463 2 -7.93571e-18 126.455 -4.40873e-17 -0.36 -1.70648e-13 -1393.45 0 0 -0 -0 -0 0 
ITEM: TIMESTEP
7300
ITEM: NUMBER OF ATOMS
1
ITEM: BOX BOUNDS ff fm pp
-4.1000000000000000e+01 4.1000000000000000e+01
0.0000000000000000e+00 2.0000000000000000e+02
-2.5000000000000000e-01 2.5000000000000000e-01
ITEM: ATOMS id type x y vx vy fx fy omegaz tqz c_101[1] c_101[2] c_101[4] c_102 
42463 2 -8.15768e-18 126.453 -4.46996e-17 -0.365 -1.70648e-13 -1393.45 0 0 -0 -0 -0 0 
ITEM: TIMESTEP
7400
ITEM: NUMBER OF ATOMS
1
ITEM: BOX BOUNDS ff fm pp
-4.1000000000000000e+01 4.1000000000000000e+01
0.0000000000000000e+00 2.0000000000000000e+02
-2.5000000000000000e-01 2.5000000000000000e-01
ITEM: ATOMS id type x y vx vy fx fy omegaz tqz c_101[1] c_101[2] c_101[4] c_102 
42463 2 -8.38271e-18 126.452 -4.53119e-17 -0.37 -1.70648e-13 -1393.45 0 0 -0 -0 -0 0 
ITEM: TIMESTEP
7500
ITEM: NUMBER OF ATOMS
1
ITEM: BOX BOUNDS ff fm pp
-4.1000000000000000e+01 4.1000000000000000e+01
0.0000000000000000e+00 2.0000000000000000e+02
-2.5000000000000000e-01 2.5000000000000000e-01
ITEM: ATOMS id type x y vx vy fx fy omegaz tqz c_101[1] c_101[2] c_101[4] c_102 
42463 2 -8.6108e-18 126.45 -4.59243e-17 -0.375 -1.70648e-13 -1393.45 0 0 -0 -0 -0 0 
ITEM: TIMESTEP
7600
ITEM: NUMBER OF ATOMS
1
ITEM: BOX BOUNDS ff fm pp
-4.1000000000000000e+01 4.1000000000000000e+01
0.0000000000000000e+00 2.0000000000000000e+02
-2.5000000000000000e-01 2.5000000000000000e-01
ITEM: ATOMS id type x y vx vy fx fy omegaz tqz c_101[1] c_101[2] c_101[4] c_102 
42463 2 -8.84195e-18 126.448 -4.65366e-17 -0.38 -1.70648e-13 -1393.45 0 0 -0 -0 -0 0 
ITEM: TIMESTEP
7700
ITEM: NUMBER OF ATOMS
1
ITEM: BOX BOUNDS ff fm pp
-4.1000000000000000e+01 4.1000000000000000e+01
0.0000000000000000e+00 2.0000000000000000e+02
-2.5000000000000000e-01 2.5000000000000000e-01
ITEM: ATOMS id type x y vx vy fx fy omegaz tqz c_101[1] c_101[2] c_101[4] c_102 
42463 2 -9.07616e-18 126.446 -4.71489e-17 -0.385 -1.70648e-13 -1393.45 0 0 -0 -0 -0 0 
ITEM: TIMESTEP
7800
ITEM: NUMBER OF ATOMS
1
ITEM: BOX BOUNDS ff fm pp
-4.1000000000000000e+01 4.1000000000000000e+01
0.0000000000000000e+00 2.0000000000000000e+02
-2.5000000000000000e-01 2.5000000000000000e-01
ITEM: ATOMS id type x y vx vy fx fy omegaz tqz c_101[1] c_101[2] c_101[4] c_102 
42463 2 -9.31344e-18 126.444 -4.77612e-17 -0.39 -1.70648e-13 -1393.45 0 0 -0 -0 -0 0 
ITEM: TIMESTEP
7900
ITEM: NUMBER OF ATOMS
1
ITEM: BOX BOUNDS ff fm pp
-4.1000000000000000e+01 4.1000000000000000e+01
0.0000000000000000e+00 2.0000000000000000e+02
-2.5000000000000000e-01 2.5000000000000000e-01